1 : h2o2_charges_PCM.inp
2 : 00
3 : 1
----- GAMESS execution script 'rungms' -----
This job is running on host nayanika-HP-Pavilion-Gaming-Laptop-15-ec0xxx
under operating system Linux at Wed 15 Feb 13:30:51 CET 2023
Available scratch disk space (Kbyte units) at beginning of the job is
Filesystem     1K-blocks      Used Available Use% Mounted on
/dev/nvme0n1p2 243520884 138706936  92370916  61% /
GAMESS temporary binary files will be written to /home/nayanika/gamess/restart
GAMESS supplementary output files will be written to /home/nayanika/gamess/restart
Copying input file /home/nayanika/OneDrive/Thesis/EVB/Optimize/h2o2_charges_PCM.inp to your run's scratch directory...

 Distributed Data Interface kickoff program.
 Initiating 1 compute processes on 1 nodes to run the following command:
 /home/nayanika/gamess/gamess.00.x h2o2_charges_PCM 

          *******************************************************
          *                                                     *
          *          GAMESS VERSION = 31 JUL 2022 (R1)          *
          *                                                     *
          *              doi.org/10.1063/5.0005188              *
          *                                                     *
          **************** 64 BIT LINUX VERSION *****************

  GAMESS HAS BEEN MADE POSSIBLE WITH IMPORTANT CONTRIBUTIONS FROM
  THE FOLLOWING INDIVIDUALS (IN ALPHABETICAL ORDER):

     IVANA ADAMOVIC, CHRISTINE AIKENS, TOMOKO AKAMA,
     MELISA ALKAN, YURI ALEXEEV, YURIKO AOKI, POOJA ARORA,
     TOSHIO ASADA, ANDREY ASADCHEV, KIM K. BALDRIDGE,
     PRADIPTA BANDYOPADHYAY, TAYLOR A. BARNES, MARIA BARYSZ,
     ROB BELL, JONATHAN BENTZ, COLLEEN BERTONI,
     JERRY A. BOATZ, BRETT BODE, KURT BRORSEN, KURT R. BRORSEN,
     LAIMUTIS BYTAUTAS, CALEB CARLIN, LAURA CARRINGTON,
     GALINA CHABAN, BENOIT CHAMPAGNE, WEI CHEN, MAHITO CHIBA,
     DAN CHIPMAN, CHEOL HO CHOI, TANNER CULPITT,
     DIPAYAN DATTA, PAUL DAY, ALBERT DEFUSCO,
     NUWAN DESILVA, J. EMILIANO DEUSTUA,
     TIM DUDLEY, MICHEL DUPUIS, STEVEN T. ELBERT,
     DMITRI FEDOROV, KATHERINE FERRERAS, MICHAEL FILATOV,
     ALEX FINDLATER,GRAHAM FLETCHER, MARK FREITAG,
     CHRISTIAN FRIEDL, DAVID GARMER, 
     IGOR S. GERASIMOV, KURT GLAESEMANN,
     MARK S. GORDON, JEFFREY GOUR, FENG LONG GU,
     EMILIE B. GUIDEZ, ANASTASIA GUNINA, SHARON HAMMES-SCHIFFER,
     MASATAKE HARUTA, KIMIHIKO HIRAO, YASUHIRO IKABATA,
     TZVETELIN IORDANOV, STEPHAN IRLE, KAZUYA ISHIMURA,
     JOE IVANIC, FRANK JENSEN, JAN H. JENSEN, VISVALDAS KAIRYS,
     MUNEAKI KAMIYA, MICHIO KATOUDA, NAOAKI KAWAKAMI, DAN KEMP,
     BERNARD KIRTMAN, KAZUO KITAURA, MARIUSZ KLOBUKOWSKI,
     MASATO KOBAYASHI, KONSTANTIN KOMAROV, PRAKASHAN KORAMBATH,
     JACEK KORCHOWIEC, SHIRO KOSEKI, KAROL KOWALSKI,
     JIMMY KROMANN, STANISLAW KUCHARSKI, HENRY KURTZ,
     SAROM SOK LEANG, SEUNGHOON LEE, HUI LI, SHUHUA LI, WEI LI,
     JESSE LUTZ, ALEKSANDR O. LYKHIN, MARCIN MAKOWSKI,
     JOANI MATO, NIKITA MATSUNAGA, BENEDETTA MENNUCCI,
     GRANT MERRILL, NORIYUKI MINEZAWA, VLADIMIR MIRONOV,
     EISAKU MIYOSHI, JOHN A. MONTGOMERY JR., HIROTOSHI MORI,
     JONATHAN MULLIN, MONIKA MUSIAL, SHIGERU NAGASE,
     TAKESHI NAGATA, HIROMI NAKAI, TAKAHITO NAKAJIMA,
     YUYA NAKAJIMA, HARUYUKI NAKANO, HIROYA NAKATA, SEAN NEDD,
     HEATHER NETZLOFF, KIET A. NGUYEN, YOSHIO NISHIMOTO,
     BOSILJKA NJEGIC, RYAN OLSON, MIKE PAK, ROBERTO PEVERATI,
     BUU PHAM, PIOTR PIECUCH, ANNA POMOGAEVA, DAVID POOLE,
     SPENCER PRUITT, OLIVIER QUINET, LUKE ROSKOP,
     KLAUS RUEDENBERG, ANDREW SAND, TOSAPORN SATTASATHUCHANA,
     NOZOMI SAWADA, MICHAEL W. SCHMIDT, PATRICK E. SCHNEIDER,
     JUNJI SEINO, PRACHI SHARMA, JUN SHEN, JIM SHOEMAKER,
     YINAN SHU, DEJUN SI, JONATHAN SKONE, LYUDMILA SLIPCHENKO,
     TONY SMITH, JIE SONG, MARK SPACKMAN, CASPER STEINMANN,
     WALT STEVENS, PEIFENG SU, SHUJUN SU, CHET SWALINA,
     CHINAMI TAKASHIMA, TETSUYA TAKETSUGU, ZHEN TAO,
     NANDUN THELLAMUREGE, SEIKEN TOKURA, JACOPO TOMASI,
     TSUGUKI TOUMA, TAKAO TSUNEDA, HIROAKI UMEDA,
     JORGE LUIS GALVEZ VALLEJO, YALI WANG, SIMON WEBB,
     AARON WEST, THERESA L. WINDUS, MARTA WLOCH,
     PENG XU, KIYOSHI YAGI, SUSUMU YANAGISAWA, YANG YANG,
     SOOHAENG YOO, TAKESHI YOSHIKAWA, FEDERICO ZAHARIEV,
     TOBY ZENG

  WHO ARE SUPPORTED BY THEIR INSTITUTION/UNIVERSITY/COMPANY/GROUP
  (IN ALPHABETICAL ORDER):

     EP ANALYTICS,
     FACULTES UNIVERSITAIRES NOTRE-DAME DE LA PAIX,
     INSTITUTE FOR MOLECULAR SCIENCE, IOWA STATE UNIVERSITY,
     JACKSON STATE UNIVERSITY, JOHANNES KEPLER UNIVERSITY LINZ,
     KYUNGPOOK NATIONAL UNIVERSITY
     KYUSHU UNIVERSITY, MICHIGAN STATE UNIVERSITY,
     MIE UNIVERSITY, THE MOLECULAR SCIENCES SOFTWARE INSTITUTE,
     MOSCOW STATE UNIVERSITY,
     N. COPERNICUS UNIVERSITY, NAGOYA UNIVERSITY,
     NANJING UNIVERSITY, NAT. INST. OF ADVANCED INDUSTRIAL
     SCIENCE AND TECHNOLOGY, NATIONAL INST. OF STANDARDS AND
     TECHNOLOGY, NESMEYANOV INSTITUTE OF ORGANOELEMENT COMPOUNDS
     OF RUSSIAN ACADEMY OF SCIENCES, OSAKA PREFECTURE UNIVERSITY,
     PENNSYLVANIA STATE UNIVERSITY, TOKYO INSTITUTE OF TECHNOLOGY,
     UNIVERSITY OF AARHUS, UNIVERSITY OF ALBERTA,
     UNIVERSITY OF CALIFORNIA AT SANTA BARBARA,
     UNIVERSITY OF COPENHAGEN, UNIVERSITY OF IOWA,
     UNIVERSITY OF MEMPHIS, UNIVERSITY OF MINNESOTA,
     UNIVERSITY OF NEBRASKA, UNIVERSITY OF NEW ENGLAND,
     UNIVERSITY OF NOTRE DAME, UNIVERSITY OF PISA,
     UNIVERSITY OF SILESIA, UNIVERSITY OF TOKYO,
     UNIVERSITY OF ZURICH, WASEDA UNIVERSITY,
     YALE UNIVERSITY

  GAMESS SOFTWARE MANAGEMENT TEAM FOR THIS RELEASE:
     MARK S. GORDON (TEAM LEAD),
     BRETT BODE (SENIOR ADVISOR),
     GIUSEPPE BARCA,
     COLLEEN BERTONI,
     KRISTOPHER KEIPERT (ADVISOR),
     SAROM S. LEANG (DEVELOPMENT LEAD),
     BUU PHAM,
     JACKSON HAYES (WEBSITE ADMINISTRATOR),
     PENG XU

 EXECUTION OF GAMESS BEGUN 13:30:59 15-FEB-2023    

            ECHO OF THE FIRST FEW INPUT CARDS -
 INPUT CARD> $contrl scftyp=rhf MPLEVL=2 runtyp=OPTIMIZE maxit=200 $end                     
 INPUT CARD> $basis gbasis=N31 ngauss=6 ndfunc=1 $end                                       
 INPUT CARD> $scf dirscf=.f. $end                                                           
 INPUT CARD> $system mwords=300 memddi=0 $end                                               
 INPUT CARD> $PCM SOLVNT=WATER ICAV=1 IDISP=0 modpar=2 $END                                 
 INPUT CARD> $statpt opttol=0.0001 nstep=100 hssend=.f. $end                                
 INPUT CARD> $DATA                                                                          
 INPUT CARD>optimizing h2o2                                                                 
 INPUT CARD>C1                                                                              
 INPUT CARD>O           8.0  -0.5673356650   0.4860354061   0.1931824792                    
 INPUT CARD>O           8.0   0.5565023167  -0.4559850807   0.2789316512                    
 INPUT CARD>H           1.0  -1.2094784069  -0.0928850245  -0.2589790597                    
 INPUT CARD>H           1.0   1.2203117551   0.0628346992  -0.2131350706                    
 INPUT CARD> $END                                                                           
  300000000 WORDS OF MEMORY AVAILABLE

     BASIS OPTIONS
     -------------
     GBASIS=N31          IGAUSS=       6      POLAR=POPN31  
     NDFUNC=       1     NFFUNC=       0     DIFFSP=       F
     NPFUNC=       0      DIFFS=       F     BASNAM=        


     RUN TITLE
     ---------
 optimizing h2o2                                                                 

 THE POINT GROUP OF THE MOLECULE IS C1      
 THE ORDER OF THE PRINCIPAL AXIS IS     0

 ATOM      ATOMIC                      COORDINATES (BOHR)
           CHARGE         X                   Y                   Z
 O           8.0    -1.0721089499        0.9184737379        0.3650619513
 O           8.0     1.0516368901       -0.8616868570        0.5271043901
 H           1.0    -2.2855827771       -0.1755272447       -0.4893994594
 H           1.0     2.3060548367        0.1187403640       -0.4027668818

          INTERNUCLEAR DISTANCES (ANGS.)
          ------------------------------

                1 O          2 O          3 H          4 H     

   1 O       0.0000000    1.4689341 *  0.9756773 *  1.8814558 *
   2 O       1.4689341 *  0.0000000    1.8814562 *  0.9756775 *
   3 H       0.9756773 *  1.8814562 *  0.0000000    2.4352065 *
   4 H       1.8814558 *  0.9756775 *  2.4352065 *  0.0000000  

  * ... LESS THAN  3.000


     ATOMIC BASIS SET
     ----------------
 THE CONTRACTED PRIMITIVE FUNCTIONS HAVE BEEN UNNORMALIZED
 THE CONTRACTED BASIS FUNCTIONS ARE NOW NORMALIZED TO UNITY

  SHELL TYPE  PRIMITIVE        EXPONENT          CONTRACTION COEFFICIENT(S)

 O         

      1   S       1          5484.6716600    0.001831074430
      1   S       2           825.2349460    0.013950172200
      1   S       3           188.0469580    0.068445078098
      1   S       4            52.9645000    0.232714335992
      1   S       5            16.8975704    0.470192897984
      1   S       6             5.7996353    0.358520852987

      2   L       7            15.5396162   -0.110777549525    0.070874268231
      2   L       8             3.5999336   -0.148026262701    0.339752839147
      2   L       9             1.0137618    1.130767015354    0.727158577316

      3   L      10             0.2700058    1.000000000000    1.000000000000

      4   D      11             0.8000000    1.000000000000

 O         

      5   S      12          5484.6716600    0.001831074430
      5   S      13           825.2349460    0.013950172200
      5   S      14           188.0469580    0.068445078098
      5   S      15            52.9645000    0.232714335992
      5   S      16            16.8975704    0.470192897984
      5   S      17             5.7996353    0.358520852987

      6   L      18            15.5396162   -0.110777549525    0.070874268231
      6   L      19             3.5999336   -0.148026262701    0.339752839147
      6   L      20             1.0137618    1.130767015354    0.727158577316

      7   L      21             0.2700058    1.000000000000    1.000000000000

      8   D      22             0.8000000    1.000000000000

 H         

      9   S      23            18.7311370    0.033494604338
      9   S      24             2.8253944    0.234726953484
      9   S      25             0.6401217    0.813757326146

     10   S      26             0.1612778    1.000000000000

 H         

     11   S      27            18.7311370    0.033494604338
     11   S      28             2.8253944    0.234726953484
     11   S      29             0.6401217    0.813757326146

     12   S      30             0.1612778    1.000000000000

 TOTAL NUMBER OF BASIS SET SHELLS             =   12
 NUMBER OF CARTESIAN GAUSSIAN BASIS FUNCTIONS =   34
 NUMBER OF ELECTRONS                          =   18
 CHARGE OF MOLECULE                           =    0
 SPIN MULTIPLICITY                            =    1
 NUMBER OF OCCUPIED ORBITALS (ALPHA)          =    9
 NUMBER OF OCCUPIED ORBITALS (BETA )          =    9
 TOTAL NUMBER OF ATOMS                        =    4
 THE NUCLEAR REPULSION ENERGY IS       36.4510863937

     $CONTRL OPTIONS
     ---------------
 SCFTYP=RHF          RUNTYP=OPTIMIZE     EXETYP=RUN     
 MPLEVL=       2     CITYP =NONE         CCTYP =NONE         VBTYP =NONE    
 DFTTYP=NONE         TDDFT =NONE    
 MULT  =       1     ICHARG=       0     NZVAR =       0     COORD =UNIQUE  
 PP    =NONE         RELWFN=NONE         LOCAL =NONE         NUMGRD=       F
 ISPHER=      -1     NOSYM =       0     MAXIT =     200     UNITS =ANGS    
 PLTORB=       F     MOLPLT=       F     AIMPAC=       F     FRIEND=        
 NPRINT=       7     IREST =       0     GEOM  =INPUT   
 NORMF =       0     NORMP =       0     ITOL  =      20     ICUT  =       9
 INTTYP=BEST         GRDTYP=BEST         QMTTOL= 1.0E-06

     $SYSTEM OPTIONS
     ---------------
  REPLICATED MEMORY=   300000000 WORDS (ON EVERY NODE).
 DISTRIBUTED MEMDDI=           0 MILLION WORDS IN AGGREGATE,
 MEMDDI DISTRIBUTED OVER   1 PROCESSORS IS           0 WORDS/PROCESSOR.
 TOTAL MEMORY REQUESTED ON EACH PROCESSOR=   300000000 WORDS.
 TIMLIM=      525600.00 MINUTES, OR     365.0 DAYS.
 PARALL= F  BALTYP=  DLB     KDIAG=    0  COREFL= F
 MXSEQ2=     300 MXSEQ3=     150  mem10=         0  mem22=         0

 ** LOOKING UP INTERNALLY STORED DATA FOR SOLVENT=WATER    **
 OPTICAL AND PHYSICAL CONSTANTS:
 EPS= 78.390; EPSINF=  1.776; RSOLV=  1.385 A; VMOL=  18.070 ML/MOL;
 TCE= .25700E-03 1/K; STEN= 71.810 DYN/CM;  DSTEN=  0.6500; CMF=  1.2770


     -----------------------------------
     INPUT FOR PCM SOLVATION CALCULATION 
     -----------------------------------
     IEF   =     -10
     ICOMP =       0     IFIELD=       0     ICAV  =       1
     IDISP =       0     IREP  =       0     IDP   =       0

     SOLVNT=WATER        EPS   = 78.3900     EPSINF=  1.7760
     VMOL  = 18.0700     TCE   =  0.00025700 STEN  = 71.8100
     DSTEN =  0.6500     CMF   =  1.2770     RSOLV =  1.3850

     NESFP =       0
     OMEGA = 40.0000     RET   =100.0000     FRO   =  0.7000

     TABS  =298.0000     IPRINT=       0

     --------------------------------
     INPUT FOR ITERATIVE C-PCM METHOD 
     --------------------------------
     IPCMIT  =         1     MXDIIS  =        50
     MXITR1  =        50     MXITR2  =        50
     THRES   = 0.100E-09     IMUL    =         3
     RCUT(1) =   15.0000     RCUT(2) =   30.0000

     IDIRCT  =         1
     IMGABI  =         0     RABI    =    4.0000
     IMGASC  =         0     RASC    =   20.0000
     THRSLS  = 0.500E-03     DENSLS  =    0.0100
     IEFPOL  =         1     REFPOL  =    0.0000

     INPUT FOR ISOTROPIC DIELECTRICS
     -------------------------------
     EPS=    78.39

     INPUT FOR CAVITY DEFINITION 
     ---------------------------
   ATOM               COORDINATES                RADIUS       EPS
      1     -0.5673      0.4860      0.1932      1.5000     78.3900
      2      0.5565     -0.4560      0.2789      1.5000     78.3900
      3     -1.2095     -0.0929     -0.2590      1.2000     78.3900
      4      1.2203      0.0628     -0.2131      1.2000     78.3900

     ----------------------------
     INPUT FOR TESSERA DEFINITION
     ----------------------------
     NTSALL  =        60     MTHALL  =         4
     MTHAUT  =         0     AUTFRE  =    2.0000
     NTSFRZ  =        60     KEEPSM  =         0
     AREAKP  =   10.0000     BONDRY  =    1.0000
     AREATL  =    0.0100

     SPHERE     INITS       METHOD
          1        60       FIXPVA
          2        60       FIXPVA
          3        60       FIXPVA
          4        60       FIXPVA

     ------------------------------
      FIXPVA TESSELLATION FOR PCM
         PEIFENG SU AND HUI LI
     UNIVERSITY OF NEBRASKA-LINCOLN
     ------------------------------


     -----------------------------
     INPUT FOR PCM GRADIENT METHOD
     -----------------------------
     IPCDER  =         3     IFAST   =         0
     FIXPVA GRADIENTS BY PEIFENG SU AND HUI LI
  

 PCM DIMENSIONS: MXSP=  2000, MXTS=       240, MEMORY=         33283

          ----------------
          PROPERTIES INPUT
          ----------------

     MOMENTS            FIELD           POTENTIAL          DENSITY
 IEMOM =       1   IEFLD =       0   IEPOT =       0   IEDEN =       0
 WHERE =COMASS     WHERE =NUCLEI     WHERE =NUCLEI     WHERE =NUCLEI  
 OUTPUT=BOTH       OUTPUT=BOTH       OUTPUT=BOTH       OUTPUT=BOTH    
 IEMINT=       0   IEFINT=       0                     IEDINT=       0
                                                       MORB  =       0
          EXTRAPOLATION IN EFFECT
          SOSCF IN EFFECT
 ORBITAL PRINTING OPTION: NPREO=     1    34     2     1

     -------------------------------
     INTEGRAL TRANSFORMATION OPTIONS
     -------------------------------
     NWORD  =            0
     CUTOFF = 1.0E-09     MPTRAN =       0
     DIRTRF =       F     AOINTS =DUP     

          ----------------------
          INTEGRAL INPUT OPTIONS
          ----------------------
 NOPK  =       1 NORDER=       0 SCHWRZ=       F

          -----------------------
          MP2 CONTROL INFORMATION
          -----------------------
          NACORE =        2  NBCORE =        2
          LMOMP2 =        F  AOINTS = DUP     
          METHOD =        2  NWORD  =               0
          MP2PRP =        F  OSPT   = NONE    
          CUTOFF = 1.00E-09  CPHFBS = BASISAO 
          CODE   = IMS       SCSPT  = NONE    

          NUMBER OF CORE -A-  ORBITALS =     2
          NUMBER OF CORE -B-  ORBITALS =     2
          NUMBER OF OCC. -A-  ORBITALS =     9
          NUMBER OF OCC. -B-  ORBITALS =     9
          NUMBER OF MOLECULAR ORBITALS =    34
          NUMBER OF   BASIS  FUNCTIONS =    34


     ------------------------------------------
     THE POINT GROUP IS C1 , NAXIS= 1, ORDER= 1
     ------------------------------------------

     DIMENSIONS OF THE SYMMETRY SUBSPACES ARE
 A   =   34

 ..... DONE SETTING UP THE RUN .....
 STEP CPU TIME =     0.01 TOTAL CPU TIME =          0.0 (      0.0 MIN)
 TOTAL WALL CLOCK TIME=          0.0 SECONDS, CPU UTILIZATION IS    99.88%


          -----------------------------
          STATIONARY POINT LOCATION RUN
          -----------------------------

 OBTAINING INITIAL HESSIAN, HESS=GUESS   
 CARTESIAN COORDINATE OPTIMIZATION USING BADGER'S RULE FORCE CONSTANT GUESS

          PARAMETERS CONTROLLING GEOMETRY SEARCH ARE
          METHOD =QA                  UPHESS =BFGS    
          NNEG   =         0          NFRZ   =         0
          NSTEP  =       100          IFOLOW =         1
          HESS   =GUESS               RESTAR =         F
          IHREP  =         0          HSSEND =         F
          NPRT   =         0          NPUN   =         0
          OPTTOL = 1.000E-04          RMIN   = 1.500E-03
          RMAX   = 1.000E-01          RLIM   = 7.000E-02
          DXMAX  = 3.000E-01          PURIFY =         F
          MOVIE  =         F          TRUPD  =         T
          TRMAX  = 5.000E-01          TRMIN  = 5.000E-02
          ITBMAT =         5          STPT   =         F
          STSTEP = 1.000E-02          PROJCT=          T

 BEGINNING GEOMETRY SEARCH POINT NSERCH=   0 ...

 COORDINATES OF ALL ATOMS ARE (ANGS)
   ATOM   CHARGE       X              Y              Z
 ------------------------------------------------------------
 O           8.0  -0.5673356650   0.4860354061   0.1931824792
 O           8.0   0.5565023167  -0.4559850807   0.2789316512
 H           1.0  -1.2094784069  -0.0928850245  -0.2589790597
 H           1.0   1.2203117551   0.0628346992  -0.2131350706

          ********************
          1 ELECTRON INTEGRALS
          ********************
 ...... END OF ONE-ELECTRON INTEGRALS ......
 STEP CPU TIME =     0.00 TOTAL CPU TIME =          0.0 (      0.0 MIN)
 TOTAL WALL CLOCK TIME=          0.0 SECONDS, CPU UTILIZATION IS    99.88%

          -------------
          GUESS OPTIONS
          -------------
          GUESS =HUCKEL            NORB  =       0          NORDER=       0
          MIX   =       F          PRTMO =       F          PUNMO =       F
          TOLZ  = 1.0E-08          TOLE  = 1.0E-05
          SYMDEN=       F          PURIFY=       F

 INITIAL GUESS ORBITALS GENERATED BY HUCKEL   ROUTINE.
 HUCKEL GUESS REQUIRES     12084 WORDS.

 SYMMETRIES FOR INITIAL GUESS ORBITALS FOLLOW.   BOTH SET(S).
     9 ORBITALS ARE OCCUPIED (    2 CORE ORBITALS).
     3=A        4=A        5=A        6=A        7=A        8=A        9=A   
    10=A       11=A       12=A       13=A       14=A       15=A       16=A   
    17=A       18=A       19=A   
 ...... END OF INITIAL ORBITAL SELECTION ......
 STEP CPU TIME =     0.00 TOTAL CPU TIME =          0.0 (      0.0 MIN)
 TOTAL WALL CLOCK TIME=          0.0 SECONDS, CPU UTILIZATION IS    99.89%

                    ----------------------
                    AO INTEGRAL TECHNOLOGY
                    ----------------------
     S,P,L SHELL ROTATED AXIS INTEGRALS, REPROGRAMMED BY
        KAZUYA ISHIMURA (IMS) AND JOSE SIERRA (SYNSTAR).
     S,P,D,L SHELL ROTATED AXIS INTEGRALS PROGRAMMED BY
        KAZUYA ISHIMURA (INSTITUTE FOR MOLECULAR SCIENCE).
     S,P,D,F,G SHELL TO TOTAL QUARTET ANGULAR MOMENTUM SUM 5,
        ERIC PROGRAM BY GRAHAM FLETCHER (ELORET AND NASA ADVANCED
        SUPERCOMPUTING DIVISION, AMES RESEARCH CENTER).
     S,P,D,F,G,L SHELL GENERAL RYS QUADRATURE PROGRAMMED BY
        MICHEL DUPUIS (PACIFIC NORTHWEST NATIONAL LABORATORY).

          --------------------
          2 ELECTRON INTEGRALS
          --------------------

 THE -PK- OPTION IS OFF, THE INTEGRALS ARE NOT IN SUPERMATRIX FORM.
 STORING   15000 INTEGRALS/RECORD ON DISK, USING 12 BYTES/INTEGRAL.
 TWO ELECTRON INTEGRAL EVALUATION REQUIRES   90474 WORDS OF MEMORY.
 II,JST,KST,LST =  1  1  1  1 NREC =         1 INTLOC =    1
 II,JST,KST,LST =  2  1  1  1 NREC =         1 INTLOC =    2
 II,JST,KST,LST =  3  1  1  1 NREC =         1 INTLOC =   34
 II,JST,KST,LST =  4  1  1  1 NREC =         1 INTLOC =  214
 II,JST,KST,LST =  5  1  1  1 NREC =         1 INTLOC = 1189
 II,JST,KST,LST =  6  1  1  1 NREC =         1 INTLOC = 3109
 II,JST,KST,LST =  7  1  1  1 NREC =         2 INTLOC =  787
 II,JST,KST,LST =  8  1  1  1 NREC =         3 INTLOC = 7957
 II,JST,KST,LST =  9  1  1  1 NREC =         7 INTLOC = 5737
 II,JST,KST,LST = 10  1  1  1 NREC =         8 INTLOC = 5617
 II,JST,KST,LST = 11  1  1  1 NREC =         9 INTLOC = 6985
 II,JST,KST,LST = 12  1  1  1 NREC =        10 INTLOC = 9937
 TOTAL NUMBER OF NONZERO TWO-ELECTRON INTEGRALS =              164571
         11 INTEGRAL RECORDS WERE STORED ON DISK FILE  8.
  ...... END OF TWO-ELECTRON INTEGRALS .....
 STEP CPU TIME =     0.02 TOTAL CPU TIME =          0.0 (      0.0 MIN)
 TOTAL WALL CLOCK TIME=          0.0 SECONDS, CPU UTILIZATION IS    99.91%
  
 DONE CAVITATION ENERGY
 STEP CPU TIME =     0.00 TOTAL CPU TIME =          0.0 (      0.0 MIN)
 TOTAL WALL CLOCK TIME=          0.0 SECONDS, CPU UTILIZATION IS    99.92%

          -------------------------------------
          ---- POLARISABLE CONTINUUM MODEL ----
          ----      UNIVERSITY OF PISA     ----
          -------------------------------------

     ----------------------------
     INPUT FOR TESSERA DEFINITION
     ----------------------------
     NTSALL  =        60     MTHALL  =         4
     MTHAUT  =         0     AUTFRE  =    2.0000
     NTSFRZ  =        60     KEEPSM  =         0
     AREAKP  =   10.0000     BONDRY  =    1.0000
     AREATL  =    0.0100

     SPHERE     INITS       METHOD
          1        60       FIXPVA
          2        60       FIXPVA
          3        60       FIXPVA
          4        60       FIXPVA

     ------------------------------
      FIXPVA TESSELLATION FOR PCM
         PEIFENG SU AND HUI LI
     UNIVERSITY OF NEBRASKA-LINCOLN
     ------------------------------


     INPUT FOR CAVITY DEFINITION 
     ---------------------------
   ATOM               COORDINATES                RADIUS       EPS
      1     -0.5673      0.4860      0.1932      1.5000     78.3900
      2      0.5565     -0.4560      0.2789      1.5000     78.3900
      3     -1.2095     -0.0929     -0.2590      1.2000     78.3900
      4      1.2203      0.0628     -0.2131      1.2000     78.3900

 MEMORY USED TO GENERATE CAVITY=    185362


 TOTAL NUMBER OF SPHERES=     4
 SPHERE           CENTER  (X,Y,Z) (A)               RADIUS (A)      AREA(A*A)
     1  -0.567335665   0.486035406   0.193182479   1.800000000  17.832826227
     2   0.556502317  -0.455985081   0.278931651   1.800000000  18.704056768
     3  -1.209478407  -0.092885025  -0.258979060   1.440000000   9.440859705
     4   1.220311755   0.062834699  -0.213135071   1.440000000   8.966694124

 TOTAL NUMBER OF TESSERAE=     119
 SURFACE AREA=    54.94443683(A**2)    CAVITY VOLUME=     38.88582723 (A**3)
 STEP CPU TIME =     0.00 TOTAL CPU TIME =          0.0 (      0.0 MIN)
 TOTAL WALL CLOCK TIME=          0.0 SECONDS, CPU UTILIZATION IS    99.92%

          THE SOLUTE IS ENCLOSED IN ONE CAVITY
 DONE CHECKING SEPARATION.
 STEP CPU TIME =     0.00 TOTAL CPU TIME =          0.0 (      0.0 MIN)
 TOTAL WALL CLOCK TIME=          0.0 SECONDS, CPU UTILIZATION IS    99.92%

 ..... DONE GENERATING CAVITY .....
 STEP CPU TIME =     0.00 TOTAL CPU TIME =          0.0 (      0.0 MIN)
 TOTAL WALL CLOCK TIME=          0.0 SECONDS, CPU UTILIZATION IS    99.92%
 NUCLEI-NUCLEAR CHARGE POLARIZATION ADJUSTMENT TO VNN=        0.0000000000

          --------------------------
                 RHF SCF CALCULATION
          --------------------------

     NUCLEAR ENERGY =        36.4510863937
     MAXIT =  200     NPUNCH=    2
     EXTRAP=T  DAMP=F  SHIFT=F  RSTRCT=F  DIIS=F  DEM=F  SOSCF=T
     DENSITY MATRIX CONV=  1.00E-06
     SOSCF WILL OPTIMIZE     225 ORBITAL ROTATIONS, SOGTOL=   0.250
     MEMORY REQUIRED FOR RHF ITERS=    105766 WORDS.

 ITER EX DEM     TOTAL ENERGY        E CHANGE  DENSITY CHANGE     ORB. GRAD
   1  0  0     -150.3214161427  -150.3214161427   0.247894864   0.000000000
          ---------------START SECOND ORDER SCF---------------
   2  1  0     -150.7376003755    -0.4161842328   0.072109526   0.051025159
   3  2  0     -150.7578200951    -0.0202197196   0.024086839   0.018863386
   4  3  0     -150.7598584402    -0.0020383451   0.004495489   0.003840819
   5  4  0     -150.7599746492    -0.0001162090   0.001410745   0.000962587
   6  5  0     -150.7599967689    -0.0000221197   0.001276876   0.000592969
   7  6  0     -150.7600022744    -0.0000055056   0.000233396   0.000193641
   8  7  0     -150.7600027726    -0.0000004982   0.000267573   0.000098643
   9  8  0     -150.7600029616    -0.0000001890   0.000046302   0.000016624
  10  9  0     -150.7600029655    -0.0000000039   0.000013509   0.000010193
  11 10  0     -150.7600029664    -0.0000000009   0.000002665   0.000001355
  12 11  0     -150.7600029664    -0.0000000000   0.000000877   0.000000403
  13 12  0     -150.7600029664     0.0000000000   0.000000319   0.000000111

          -----------------
          DENSITY CONVERGED
          -----------------
     TIME TO FORM FOCK OPERATORS=       0.2 SECONDS (       0.0 SEC/ITER)
     TIME TO SOLVE SCF EQUATIONS=       0.0 SECONDS (       0.0 SEC/ITER)

 FINAL RHF ENERGY IS     -150.7600029664 AFTER  13 ITERATIONS
  
   PCM ASC=     -0.0010094549
   GCAVP  =      0.0105898564
   GDISP  =      0.0000000000
   GREP   =      0.0000000000

          ------------
          EIGENVECTORS
          ------------

                      1          2          3          4          5
                  -20.6390   -20.6387    -1.4639    -1.2101    -0.7101
                     A          A          A          A          A   
    1  O  1  S    0.555554   0.825188  -0.149211  -0.152873  -0.049829
    2  O  1  S    0.011749   0.017379   0.341578   0.356640   0.115176
    3  O  1  X    0.000267  -0.000005   0.032442  -0.103157   0.209024
    4  O  1  Y   -0.000875  -0.000948  -0.073361  -0.008989   0.319029
    5  O  1  Z   -0.000220  -0.000381  -0.018712  -0.036769   0.048986
    6  O  1  S    0.002098   0.002488   0.284692   0.368707   0.187616
    7  O  1  X    0.000040  -0.000350   0.010233  -0.050917   0.127041
    8  O  1  Y    0.000267   0.000691  -0.033947  -0.009866   0.205101
    9  O  1  Z    0.000041   0.000184  -0.011921  -0.021884   0.026145
   10  O  1 XX   -0.002184  -0.003432   0.018361   0.005331   0.004837
   11  O  1 YY   -0.002167  -0.003278   0.015827   0.005411  -0.024414
   12  O  1 ZZ   -0.002085  -0.002981   0.001250   0.007907   0.002077
   13  O  1 XY    0.000037   0.000274  -0.006927   0.019161  -0.012395
   14  O  1 XZ   -0.000056  -0.000106   0.004913   0.008410  -0.010181
   15  O  1 YZ   -0.000024  -0.000050   0.005226   0.007884  -0.010503
   16  O  2  S    0.825142  -0.555621  -0.149271   0.152825   0.049858
   17  O  2  S    0.017423  -0.011683   0.341671  -0.356537  -0.115273
   18  O  2  X   -0.000226  -0.000119  -0.031315  -0.104776   0.212337
   19  O  2  Y    0.001114  -0.000511   0.070330  -0.004556   0.311029
   20  O  2  Z   -0.000503   0.000333  -0.029308   0.032805  -0.079607
   21  O  2  S    0.002880  -0.001516   0.284990  -0.368598  -0.187672
   22  O  2  X    0.000088  -0.000330  -0.009620  -0.051877   0.128978
   23  O  2  Y   -0.000490   0.000514   0.032243  -0.007209   0.200695
   24  O  2  Z    0.000175  -0.000238  -0.016541   0.020525  -0.046136
   25  O  2 XX   -0.003321   0.002362   0.018658  -0.006075  -0.003963
   26  O  2 YY   -0.003228   0.002208   0.014415  -0.003831   0.021773
   27  O  2 ZZ   -0.003060   0.001987   0.002323  -0.008724  -0.000325
   28  O  2 XY    0.000144  -0.000244  -0.007133  -0.018286   0.011592
   29  O  2 XZ    0.000060  -0.000026  -0.003118   0.010911  -0.011888
   30  O  2 YZ    0.000073  -0.000083  -0.007501   0.006454  -0.013538
   31  H  3  S    0.000163   0.000345   0.080399   0.117486  -0.148198
   32  H  3  S   -0.000156  -0.000104  -0.009175  -0.003094  -0.063324
   33  H  4  S    0.000280  -0.000258   0.080420  -0.117457   0.148381
   34  H  4  S   -0.000184   0.000038  -0.009201   0.003088   0.063410

                      6          7          8          9         10
                   -0.6951    -0.6034    -0.5239    -0.4808     0.2218
                     A          A          A          A          A   
    1  O  1  S   -0.015777   0.026236   0.035114  -0.014923  -0.077608
    2  O  1  S    0.034795  -0.064385  -0.077847   0.034780   0.130218
    3  O  1  X    0.245230   0.327879  -0.091571  -0.095899   0.192192
    4  O  1  Y    0.036069  -0.151441  -0.414037  -0.048435  -0.286127
    5  O  1  Z    0.316099  -0.247953   0.164707   0.472800  -0.027202
    6  O  1  S    0.058094  -0.116821  -0.172363   0.066215   0.802481
    7  O  1  X    0.150152   0.225224  -0.072306  -0.079483   0.238382
    8  O  1  Y    0.025310  -0.101853  -0.302457  -0.041296  -0.515712
    9  O  1  Z    0.200730  -0.180129   0.124717   0.363228  -0.086674
   10  O  1 XX   -0.000658   0.000610   0.014475  -0.001195  -0.029729
   11  O  1 YY    0.003685   0.013197   0.019057   0.007672  -0.001286
   12  O  1 ZZ   -0.011079  -0.001853  -0.009730  -0.013019  -0.013487
   13  O  1 XY   -0.027780  -0.029398   0.004265  -0.000013   0.011163
   14  O  1 XZ   -0.007201  -0.008825   0.006607  -0.012830  -0.003483
   15  O  1 YZ   -0.021043   0.011353   0.001562  -0.010640   0.008866
   16  O  2  S   -0.015722   0.026264   0.035070   0.014948   0.077374
   17  O  2  S    0.034594  -0.064371  -0.077817  -0.034736  -0.129846
   18  O  2  X   -0.259363  -0.315746   0.085123  -0.073955   0.190493
   19  O  2  Y    0.003886   0.117874   0.431880  -0.107406  -0.279623
   20  O  2  Z    0.306716  -0.280286   0.115891  -0.466089   0.071590
   21  O  2  S    0.058046  -0.117165  -0.172024  -0.066494  -0.799731
   22  O  2  X   -0.159114  -0.216277   0.067468  -0.062673   0.233779
   23  O  2  Y    0.000160   0.077350   0.316157  -0.086695  -0.498996
   24  O  2  Z    0.195354  -0.202080   0.089352  -0.357913   0.161338
   25  O  2 XX   -0.001434  -0.000209   0.014951   0.002333   0.029868
   26  O  2 YY    0.007891   0.010365   0.018275  -0.009599   0.003292
   27  O  2 ZZ   -0.014553   0.001869  -0.009496   0.013934   0.011182
   28  O  2 XY   -0.027492  -0.027442   0.003631  -0.001226  -0.011861
   29  O  2 XZ    0.011331   0.012438  -0.005787  -0.013399  -0.001102
   30  O  2 YZ    0.017026  -0.014427  -0.005499  -0.007409   0.009752
   31  H  3  S   -0.168094  -0.035208   0.104392  -0.066636  -0.043525
   32  H  3  S   -0.070511  -0.026458   0.041082  -0.036006  -0.736981
   33  H  4  S   -0.168040  -0.035092   0.104097   0.066847   0.043366
   34  H  4  S   -0.070405  -0.026493   0.041037   0.035988   0.732681

                     11         12         13         14         15
                    0.2330     0.3076     1.0454     1.0537     1.0584
                     A          A          A          A          A   
    1  O  1  S    0.057824   0.005983   0.013523   0.012883  -0.008936
    2  O  1  S   -0.067415  -0.081937  -0.427988   0.000744  -0.266529
    3  O  1  X    0.133455  -0.357683  -0.085593   0.089240   0.202483
    4  O  1  Y    0.084382   0.088500  -0.042203   0.393518  -0.588473
    5  O  1  Z    0.088115  -0.096662   0.202908  -0.028893  -0.029359
    6  O  1  S   -0.739358   0.218414   0.784901  -0.083253   0.218981
    7  O  1  X    0.288034  -0.643475   0.335050   0.213908  -0.573229
    8  O  1  Y    0.234797   0.104886   0.100544  -0.189153   0.737374
    9  O  1  Z    0.201119  -0.202907  -0.020749   0.156265  -0.048648
   10  O  1 XX    0.019914  -0.015751  -0.050340  -0.003230  -0.195304
   11  O  1 YY    0.021381  -0.023437  -0.131427   0.038564  -0.143574
   12  O  1 ZZ    0.026253  -0.027085  -0.153866  -0.001937  -0.077119
   13  O  1 XY   -0.001957  -0.002639   0.050627   0.119192   0.069615
   14  O  1 XZ   -0.005746   0.006437   0.070973   0.068986  -0.030327
   15  O  1 YZ   -0.008260  -0.003922   0.077918   0.043740  -0.019374
   16  O  2  S    0.058113  -0.005971  -0.013511   0.012805   0.009112
   17  O  2  S   -0.068123   0.081839   0.426165  -0.006687   0.264860
   18  O  2  X   -0.136809  -0.361598  -0.076873  -0.092342   0.197095
   19  O  2  Y   -0.074139   0.098952  -0.070293  -0.383353  -0.586237
   20  O  2  Z    0.092080   0.068095  -0.201579   0.016443   0.111967
   21  O  2  S   -0.741891  -0.218361  -0.782011  -0.074483  -0.217106
   22  O  2  X   -0.296722  -0.651675   0.332901  -0.211566  -0.575830
   23  O  2  Y   -0.210014   0.127904   0.104697   0.192867   0.739508
   24  O  2  Z    0.216475   0.158407   0.025601   0.122099  -0.068263
   25  O  2 XX    0.019528   0.015253   0.043924  -0.000984   0.196585
   26  O  2 YY    0.023194   0.022643   0.148055   0.025521   0.137852
   27  O  2 ZZ    0.024786   0.028311   0.141840  -0.000716   0.080380
   28  O  2 XY   -0.001700   0.003539  -0.044299   0.113070  -0.069312
   29  O  2 XZ    0.005654   0.005391   0.071272  -0.083887  -0.016663
   30  O  2 YZ    0.008700  -0.003083   0.076672  -0.043328  -0.032555
   31  H  3  S    0.067473  -0.081127   0.735610   0.727169  -0.172230
   32  H  3  S    1.088907  -0.945236  -0.527956  -0.448595  -0.000514
   33  H  4  S    0.067623   0.081094  -0.731169   0.728606   0.185412
   34  H  4  S    1.091598   0.945347   0.524563  -0.452229  -0.008575

                     16         17         18         19         20
                    1.0719     1.1671     1.2126     1.2701     1.3390
                     A          A          A          A          A   
    1  O  1  S   -0.021962  -0.017603   0.000894   0.001849  -0.001995
    2  O  1  S   -0.639143  -0.448779  -0.212725  -0.351645   0.153108
    3  O  1  X   -0.003713  -0.354754   0.255436   0.546846  -0.578370
    4  O  1  Y   -0.174316  -0.201026   0.139486  -0.171023  -0.251636
    5  O  1  Z   -0.485217   0.388617  -0.553202   0.256323  -0.313817
    6  O  1  S    1.214469   0.852784   0.391233   0.869635  -0.205058
    7  O  1  X   -0.019847   0.497082  -0.259887  -0.620496   1.052478
    8  O  1  Y    0.189506   0.363741  -0.078922   0.188863   0.105375
    9  O  1  Z    0.405174  -0.378983   0.828689  -0.279462   0.549651
   10  O  1 XX   -0.251822  -0.225951  -0.046619  -0.007648   0.078172
   11  O  1 YY   -0.225068  -0.134902  -0.062342  -0.064115   0.034078
   12  O  1 ZZ   -0.209711  -0.121249  -0.084536  -0.168641   0.029229
   13  O  1 XY    0.033119   0.079840   0.032503  -0.096941  -0.041691
   14  O  1 XZ   -0.010881   0.007510  -0.011356   0.062885  -0.003650
   15  O  1 YZ    0.009160   0.021932   0.048562   0.011412   0.025465
   16  O  2  S   -0.022005  -0.017584  -0.000836   0.001875   0.001989
   17  O  2  S   -0.642321  -0.447441   0.213110  -0.351145  -0.153781
   18  O  2  X    0.026000   0.337856   0.228945  -0.556895  -0.593660
   19  O  2  Y    0.112553   0.249950   0.209100   0.201054  -0.211097
   20  O  2  Z   -0.503303   0.377319   0.540265   0.206220   0.316624
   21  O  2  S    1.220700   0.850066  -0.392086   0.868069   0.206698
   22  O  2  X    0.000548  -0.480825  -0.220461   0.631466   1.077917
   23  O  2  Y   -0.137585  -0.410570  -0.183829  -0.221740   0.037535
   24  O  2  Z    0.427751  -0.354469  -0.821096  -0.222968  -0.510238
   25  O  2 XX   -0.253392  -0.224374   0.047891  -0.003371  -0.077609
   26  O  2 YY   -0.227808  -0.138568   0.073290  -0.068683  -0.028358
   27  O  2 ZZ   -0.208566  -0.117852   0.072891  -0.167970  -0.035999
   28  O  2 XY    0.034697   0.078593  -0.036298  -0.102609   0.039352
   29  O  2 XZ    0.004100  -0.023185  -0.008688  -0.041446  -0.011233
   30  O  2 YZ   -0.005220  -0.015548   0.048598  -0.031170   0.027149
   31  H  3  S    0.068736   0.233388   0.236487   0.257062  -0.095154
   32  H  3  S   -0.290373  -0.387177  -0.295946  -0.556637   0.813378
   33  H  4  S    0.070924   0.232351  -0.236496   0.256850   0.095301
   34  H  4  S   -0.292720  -0.385733   0.296599  -0.555311  -0.814180

                     21         22         23         24         25
                    1.4447     1.5630     1.7749     1.7792     1.9738
                     A          A          A          A          A   
    1  O  1  S   -0.044078  -0.081439  -0.021507   0.005537   0.005599
    2  O  1  S   -0.707147  -1.049897  -0.248096   0.101589   0.148776
    3  O  1  X    0.067983  -0.154049  -0.004894   0.013549   0.016359
    4  O  1  Y    0.435674   0.196467   0.038777  -0.039075  -0.060835
    5  O  1  Z    0.158479   0.015342   0.007670  -0.007683  -0.011913
    6  O  1  S    1.544166   3.167319   0.779455  -0.212451  -0.299879
    7  O  1  X   -0.503141   0.948282   0.091381   0.047265   0.087313
    8  O  1  Y   -0.837066  -1.064106  -0.357348   0.111792   0.141310
    9  O  1  Z   -0.324267  -0.095071  -0.057833   0.137222   0.097219
   10  O  1 XX   -0.279325  -0.505407   0.415645   0.081803  -0.216580
   11  O  1 YY   -0.329255  -0.180320  -0.600515   0.175844  -0.222347
   12  O  1 ZZ   -0.068390  -0.237185  -0.024027  -0.177890   0.532415
   13  O  1 XY    0.044045  -0.054012   0.090886   0.023664  -0.287307
   14  O  1 XZ   -0.143233  -0.124485  -0.144920  -0.448851   0.116559
   15  O  1 YZ    0.008125  -0.141295  -0.173621   0.406670   0.360402
   16  O  2  S   -0.044230   0.081359   0.021460   0.005642   0.005553
   17  O  2  S   -0.709132   1.048470   0.247192   0.102838   0.148259
   18  O  2  X   -0.075986  -0.152604  -0.004292  -0.013060  -0.015646
   19  O  2  Y   -0.412398   0.191777   0.037073   0.037910   0.058675
   20  O  2  Z    0.209550  -0.047163  -0.012671  -0.013256  -0.020199
   21  O  2  S    1.550119  -3.164441  -0.777643  -0.216321  -0.298255
   22  O  2  X    0.517976   0.940617   0.088053  -0.053565  -0.092255
   23  O  2  Y    0.792423  -1.039328  -0.345978  -0.095399  -0.127477
   24  O  2  Z   -0.405477   0.272146   0.105816   0.148570   0.110001
   25  O  2 XX   -0.290766   0.514392  -0.404079   0.043365  -0.207504
   26  O  2 YY   -0.326953   0.149915   0.552235   0.085377  -0.291038
   27  O  2 ZZ   -0.060992   0.257260   0.060018  -0.047946   0.591590
   28  O  2 XY    0.060482   0.044947  -0.100815   0.099910  -0.288710
   29  O  2 XZ    0.125063  -0.116530  -0.159370   0.449434  -0.121361
   30  O  2 YZ    0.033560  -0.127079  -0.254303  -0.441143  -0.253132
   31  H  3  S   -0.346265  -0.268633  -0.129271   0.086318   0.139809
   32  H  3  S   -0.594602  -0.160234  -0.091691   0.076545   0.107841
   33  H  4  S   -0.346852   0.267900   0.128563   0.086986   0.139584
   34  H  4  S   -0.594825   0.159456   0.091120   0.077063   0.107574

                     26         27         28         29         30
                    2.0757     2.2731     2.5989     2.6399     2.8029
                     A          A          A          A          A   
    1  O  1  S    0.014914  -0.018158   0.008697  -0.012420   0.046800
    2  O  1  S    0.180404   0.359647  -0.007728  -0.132643   0.569276
    3  O  1  X   -0.009363   0.294627   0.016538  -0.004735   0.015198
    4  O  1  Y   -0.029571  -0.254546   0.082563   0.009921  -0.071243
    5  O  1  Z   -0.015374   0.018700  -0.007686  -0.079056  -0.055613
    6  O  1  S   -0.555416  -0.291138  -0.074420   0.425203  -1.765871
    7  O  1  X   -0.029859  -0.162364  -0.095265   0.048667  -0.129773
    8  O  1  Y    0.219609   0.213759  -0.152075  -0.162848   0.767245
    9  O  1  Z    0.052545   0.012928   0.052593   0.241783   0.429758
   10  O  1 XX    0.185632  -0.207854  -0.658096   0.005543  -0.206197
   11  O  1 YY    0.403149  -0.055424   0.641950  -0.042506  -0.006611
   12  O  1 ZZ   -0.457082   0.384198   0.039721  -0.045714   0.487654
   13  O  1 XY    0.259148   0.413654  -0.278936   0.145173  -0.310371
   14  O  1 XZ   -0.242666  -0.225496  -0.136467   0.712961  -0.203377
   15  O  1 YZ   -0.330218  -0.154220  -0.199399  -0.410280  -0.551669
   16  O  2  S   -0.014927  -0.018127   0.008682   0.012459  -0.047382
   17  O  2  S   -0.180685   0.359737  -0.007959   0.132593  -0.571004
   18  O  2  X   -0.010091  -0.294441  -0.016382  -0.008305   0.010786
   19  O  2  Y   -0.027520   0.253997  -0.082942   0.019670  -0.063825
   20  O  2  Z    0.018629  -0.027211   0.001952   0.076822   0.065171
   21  O  2  S    0.555995  -0.291632  -0.073726  -0.425515   1.774864
   22  O  2  X   -0.026647   0.161047   0.093077   0.059226  -0.099778
   23  O  2  Y    0.211309  -0.210053   0.158121  -0.191781   0.712710
   24  O  2  Z   -0.081510   0.047385   0.037579  -0.216537  -0.532753
   25  O  2 XX   -0.165975  -0.222417  -0.668685  -0.063595   0.218843
   26  O  2 YY   -0.462306  -0.012478   0.674461  -0.045797  -0.117037
   27  O  2 ZZ    0.496361   0.356053   0.017731   0.192260  -0.379599
   28  O  2 XY   -0.277268   0.427973  -0.268403  -0.035993   0.315389
   29  O  2 XZ   -0.243105   0.140720   0.133404   0.716694  -0.215870
   30  O  2 YZ   -0.207839   0.233376   0.094615  -0.396252  -0.599091
   31  H  3  S    0.139494   0.050220   0.223022  -0.228688   0.939304
   32  H  3  S    0.097109   0.053896  -0.049038   0.018107   0.059565
   33  H  4  S   -0.139674   0.050316   0.222594   0.229275  -0.951305
   34  H  4  S   -0.097340   0.053925  -0.048998  -0.018164  -0.060165

                     31         32         33         34
                    2.8076     3.2876     3.8254     4.0525
                     A          A          A          A   
    1  O  1  S    0.040611   0.103370  -0.321129  -0.341802
    2  O  1  S    0.132021   0.648914   0.253540   0.128283
    3  O  1  X   -0.115119  -0.054595   0.015326  -0.043838
    4  O  1  Y   -0.024666   0.048000   0.067270   0.120344
    5  O  1  Z   -0.024848  -0.001597   0.044342   0.018395
    6  O  1  S   -0.650937  -2.732346   2.172495   3.144534
    7  O  1  X    0.562336  -1.312854  -0.078401   0.228559
    8  O  1  Y    0.508234   1.123004  -0.154269  -0.476085
    9  O  1  Z    0.234950  -0.096879  -0.110792  -0.085390
   10  O  1 XX    0.297100  -0.285943  -0.981471  -1.141057
   11  O  1 YY   -0.317262   0.028695  -1.019774  -1.165925
   12  O  1 ZZ    0.222038   0.755785  -1.132010  -1.159858
   13  O  1 XY   -0.391360   0.989360  -0.140470   0.069170
   14  O  1 XZ   -0.474714  -0.106416   0.009404   0.030786
   15  O  1 YZ   -0.406362   0.069351  -0.028641   0.055931
   16  O  2  S    0.039975  -0.103454  -0.321307   0.341600
   17  O  2  S    0.124203  -0.648766   0.253872  -0.128141
   18  O  2  X    0.116381  -0.054457  -0.017495  -0.042593
   19  O  2  Y    0.020735   0.047652  -0.061214   0.116859
   20  O  2  Z   -0.021624  -0.006950   0.051801  -0.035466
   21  O  2  S   -0.626756   2.732788   2.173464  -3.143165
   22  O  2  X   -0.575273  -1.312698   0.084109   0.223070
   23  O  2  Y   -0.466234   1.122358   0.139076  -0.460663
   24  O  2  Z    0.264269  -0.106324  -0.125812   0.155326
   25  O  2 XX    0.260405   0.286981  -0.982552   1.137702
   26  O  2 YY   -0.223331  -0.030587  -1.016757   1.177032
   27  O  2 ZZ    0.161090  -0.755716  -1.135934   1.150131
   28  O  2 XY   -0.343092  -0.991086  -0.140489  -0.067302
   29  O  2 XZ    0.522997   0.075253   0.016609   0.038648
   30  O  2 YZ    0.449533  -0.083659   0.005033   0.050335
   31  H  3  S    0.872869  -0.014685   0.144159  -0.033063
   32  H  3  S    0.039681   0.044701  -0.502537  -0.360740
   33  H  4  S    0.859729   0.014854   0.144207   0.033136
   34  H  4  S    0.038886  -0.044856  -0.502739   0.360453
 ...... END OF RHF CALCULATION ......
 STEP CPU TIME =     0.21 TOTAL CPU TIME =          0.2 (      0.0 MIN)
 TOTAL WALL CLOCK TIME=          0.2 SECONDS, CPU UTILIZATION IS    99.90%

     ----------------------------------------------------------------
     PROPERTY VALUES FOR THE RHF   SELF-CONSISTENT FIELD WAVEFUNCTION
     ----------------------------------------------------------------

          ---------------------------------------
          MULLIKEN AND LOWDIN POPULATION ANALYSES
          ---------------------------------------

     ATOMIC MULLIKEN POPULATION IN EACH MOLECULAR ORBITAL

                      1          2          3          4          5

                  2.000000   2.000000   2.000000   2.000000   2.000000

    1             0.623892   1.376109   0.956452   0.909406   0.866300
    2             1.376128   0.623873   0.957292   0.908795   0.867932
    3            -0.000011   0.000010   0.043126   0.090923   0.132716
    4            -0.000009   0.000008   0.043130   0.090875   0.133052

                      6          7          8          9

                  2.000000   2.000000   2.000000   2.000000

    1             0.836139   0.990831   0.954459   0.982769
    2             0.836005   0.991777   0.955553   0.979216
    3             0.164025   0.008714   0.045114   0.018959
    4             0.163830   0.008679   0.044874   0.019056

               ----- POPULATIONS IN EACH AO -----
                             MULLIKEN      LOWDIN
              1  O  1  S      1.99560     1.97789
              2  O  1  S      0.93418     0.74079
              3  O  1  X      0.73190     0.68674
              4  O  1  Y      0.89255     0.85180
              5  O  1  Z      1.14992     1.11987
              6  O  1  S      0.91192     0.48733
              7  O  1  X      0.47055     0.52470
              8  O  1  Y      0.58760     0.64853
              9  O  1  Z      0.73892     0.75862
             10  O  1 XX      0.02593     0.18856
             11  O  1 YY      0.01626     0.18354
             12  O  1 ZZ      0.00921     0.18118
             13  O  1 XY      0.02035     0.02738
             14  O  1 XZ      0.00615     0.01212
             15  O  1 YZ      0.00534     0.00788
             16  O  2  S      1.99560     1.97789
             17  O  2  S      0.93417     0.74080
             18  O  2  X      0.72319     0.67715
             19  O  2  Y      0.91017     0.87142
             20  O  2  Z      1.14092     1.10978
             21  O  2  S      0.91219     0.48734
             22  O  2  X      0.46392     0.51877
             23  O  2  Y      0.59841     0.65688
             24  O  2  Z      0.73482     0.75635
             25  O  2 XX      0.02675     0.18942
             26  O  2 YY      0.01422     0.18174
             27  O  2 ZZ      0.00992     0.18182
             28  O  2 XY      0.01898     0.02570
             29  O  2 XZ      0.00789     0.01403
             30  O  2 YZ      0.00543     0.00798
             31  H  3  S      0.44249     0.41512
             32  H  3  S      0.06108     0.18789
             33  H  4  S      0.44246     0.41513
             34  H  4  S      0.06103     0.18787

          ----- MULLIKEN ATOMIC OVERLAP POPULATIONS -----
          (OFF-DIAGONAL ELEMENTS NEED TO BE MULTIPLIED BY 2)

             1           2           3           4

    1    8.1780995
    2    0.0890167   8.1782784
    3    0.2515500  -0.0222809   0.2727294
    4   -0.0223095   0.2515570   0.0015784   0.2726694

          TOTAL MULLIKEN AND LOWDIN ATOMIC POPULATIONS
       ATOM         MULL.POP.    CHARGE          LOW.POP.     CHARGE
    1 O             8.496357   -0.496357         8.396927   -0.396927
    2 O             8.496571   -0.496571         8.397075   -0.397075
    3 H             0.503577    0.496423         0.603006    0.396994
    4 H             0.503495    0.496505         0.602993    0.397007

          -------------------------------
          BOND ORDER AND VALENCE ANALYSIS     BOND ORDER THRESHOLD=0.050
          -------------------------------

                   BOND                       BOND                       BOND
  ATOM PAIR DIST  ORDER      ATOM PAIR DIST  ORDER      ATOM PAIR DIST  ORDER
    1   2  1.469  0.949        1   3  0.976  0.727        2   4  0.976  0.726

                       TOTAL       BONDED        FREE
      ATOM            VALENCE     VALENCE     VALENCE
    1 O                 1.675       1.675      -0.000
    2 O                 1.675       1.675       0.000
    3 H                 0.727       0.727      -0.000
    4 H                 0.727       0.727       0.000

    **** A SOLVENT MODEL IS IN USE IN THIS RUN ****
 ELECTRICAL PROPERTIES (MOMENTS, DENSITY, FIELD/GRADIENT, AND/OR POTENTIAL)
 ARE COMPUTED USING THE SOLVATED SYSTEM'S DENSITY MATRIX, BUT
 ONLY WITH AO INTEGRAL CONTRIBUTIONS FROM THE QUANTUM SOLUTE.
 WITH THE EXCEPTIONS THAT THE DIPOLE AND, OPTIONALLY, 
 POTENTIAL ARE PRINTED WITH THE SOLUTE CONTRIBUTION.

          ----------------------------
          SOLUTE ELECTROSTATIC MOMENTS
          ----------------------------

 POINT   1           X           Y           Z (BOHR)    CHARGE
                -0.009023    0.025027    0.393201       -0.00 (A.U.)
         DX          DY          DZ         /D/  (DEBYE)
     0.047617   -0.131838   -2.057767    2.062535

          ----------------------------
          SYSTEM ELECTROSTATIC MOMENTS
          ----------------------------

 POINT   1           X           Y           Z (BOHR)    CHARGE
                -0.009023    0.025027    0.393201       -0.00 (A.U.)
         DX          DY          DZ         /D/  (DEBYE)
     0.047617   -0.131838   -2.057767    2.062535
 INCLUDING PCM SURFACE CHARGES, TOTAL CHARGE=   -0.001009, AND TOTAL DIPOLE IS
         DX          DY          DZ         /D/  (DEBYE)
    -0.001348    0.000133   -0.087718    0.087728
 ...... END OF PROPERTY EVALUATION ......
 STEP CPU TIME =     0.00 TOTAL CPU TIME =          0.3 (      0.0 MIN)
 TOTAL WALL CLOCK TIME=          0.3 SECONDS, CPU UTILIZATION IS    99.90%

 -------------------------------   -----------------------------
 MP2 ENERGY GRADIENT CALCULATION   PROGRAM WRITTEN BY K.ISHIMURA
 -------------------------------   -----------------------------
 NUMBER OF OCCUPIED ORBITALS            =    9
 NUMBER OF VIRTUAL ORBITALS             =   25
 NUMBER OF ACTIVE OCCUPIED ORBITALS     =    7
 NUMBER OF ACTIVE VIRTUAL ORBITALS      =   25
 NUMBER OF BASIS FUNCTIONS              =   34
 NUMBER OF BASIS SHELLS                 =   12
 AO INTEGRAL THRESHOLD                  = 1.00E-09
 HALF-TRANSFORMED INTEGRAL THRESHOLD    = 9.97E-11

 ----------------------------------------------
 MP2-CPCM GRADIENT CODED BY HUI LI AND DEJUN SI
        UNIVERSITY OF NEBRASKA-LINCOLN
 ----------------------------------------------

   REQUIRED DISK =         1 MBYTES/PROCESSOR


 .... DONE WITH PCM CONTRIBUTION TO GRADIENT ....
 STEP CPU TIME =     0.00 TOTAL CPU TIME =          0.3 (      0.0 MIN)
 TOTAL WALL CLOCK TIME=          0.3 SECONDS, CPU UTILIZATION IS    96.53%
 MAXIMUM MEMORY USED DURING MP2 GRADIENT=      167163 WORDS, OR       1 MWORDS.
 BEGINNING    1ST SHELL LOOP...
 .... DONE WITH 1ST THREE INDEX TRANSFORMATIONS ....
 STEP CPU TIME =     0.06 TOTAL CPU TIME =          0.3 (      0.0 MIN)
 TOTAL WALL CLOCK TIME=          0.3 SECONDS, CPU UTILIZATION IS    97.14%

 RESULTS OF MOLLER-PLESSET 2ND ORDER CORRECTION ARE
               E(0)=      -150.7600029664
               E(1)=         0.0
               E(2)=        -0.3695413308
             E(MP2)=      -151.1295442972
 .... DONE WITH 4TH INDEX TRANSFORMATION AND ENERGY ....
 STEP CPU TIME =     0.01 TOTAL CPU TIME =          0.3 (      0.0 MIN)
 TOTAL WALL CLOCK TIME=          0.3 SECONDS, CPU UTILIZATION IS    97.21%
 .... DONE WITH 1ST THREE INDEX TRANSFORMATIONS FOR GRADIENT ....
 STEP CPU TIME =     0.05 TOTAL CPU TIME =          0.4 (      0.0 MIN)
 TOTAL WALL CLOCK TIME=          0.4 SECONDS, CPU UTILIZATION IS    97.59%
 .... DONE WITH 4TH INDEX TRANSFORMATION FOR GRADIENT ....
 STEP CPU TIME =     0.00 TOTAL CPU TIME =          0.4 (      0.0 MIN)
 TOTAL WALL CLOCK TIME=          0.4 SECONDS, CPU UTILIZATION IS    97.61%
 CYCLE  1  Z-VECTOR ERROR= -0.259338E-02
 CYCLE  2  Z-VECTOR ERROR=  0.105348E-02
 CYCLE  3  Z-VECTOR ERROR= -0.357497E-03
 CYCLE  4  Z-VECTOR ERROR=  0.120764E-03
 CYCLE  5  Z-VECTOR ERROR= -0.305000E-04
 CYCLE  6  Z-VECTOR ERROR=  0.121674E-04
 CYCLE  7  Z-VECTOR ERROR= -0.218787E-05
 CYCLE  8  Z-VECTOR ERROR=  0.548217E-06
 CYCLE  9  Z-VECTOR ERROR= -0.912680E-07
 CYCLE 10  Z-VECTOR ERROR=  0.199925E-07
 CYCLE 11  Z-VECTOR ERROR= -0.499086E-08
 CYCLE 12  Z-VECTOR ERROR=  0.884943E-09
 CYCLE 13  Z-VECTOR ERROR= -0.137705E-09
 CYCLE 14  Z-VECTOR ERROR=  0.408048E-10
 .... DONE WITH RESPONSE EQUATIONS AND DENSITY ....
 STEP CPU TIME =     0.18 TOTAL CPU TIME =          0.6 (      0.0 MIN)
 TOTAL WALL CLOCK TIME=          0.6 SECONDS, CPU UTILIZATION IS    98.35%

 MP2 NATURAL ORBITAL OCCUPATION NUMBERS ARE
  2.0000 2.0000 1.9884 1.9833 1.9767 1.9742 1.9681 1.9667 1.9358 0.0577
  0.0235 0.0230 0.0192 0.0162 0.0110 0.0093 0.0060 0.0057 0.0056 0.0045
  0.0045 0.0042 0.0041 0.0028 0.0026 0.0024 0.0023 0.0007 0.0007 0.0003
  0.0002 0.0002 0.0001 0.0001
 THERE ARE    17.7932 ELECTRONS IN PRINCIPAL MP2 NATURAL ORBITALS.
 THERE ARE     0.2068 ELECTRONS IN SECONDARY MP2 NATURAL ORBITALS.
 THE MP2 NATURAL ORBITALS HAVE BEEN PUNCHED.
 
 ----------------------------------
 THE P(2) CORRECTED MP2-CPCM ENERGY
  (CURRENTLY NO ANALYTIC GRADIENT)
 EMP2        =      -151.1295442972
 EPCM(2)     =        -0.0005513828
 EMP2+EPCM(2)=      -151.1300956800
 ----------------------------------
 

 .... DONE WITH PCM CONTRIBUTION TO GRADIENT ....
 STEP CPU TIME =     0.05 TOTAL CPU TIME =          0.6 (      0.0 MIN)
 TOTAL WALL CLOCK TIME=          0.6 SECONDS, CPU UTILIZATION IS    98.49%

 BEGINNING ONE ELECTRON GRADIENT...
 ..... END OF 1-ELECTRON GRADIENT ......
 STEP CPU TIME =     0.00 TOTAL CPU TIME =          0.6 (      0.0 MIN)
 TOTAL WALL CLOCK TIME=          0.6 SECONDS, CPU UTILIZATION IS    98.49%
 THE COARSE/FINE SCHWARZ SCREENINGS SKIPPED          0/         0 BLOCKS.
 THE NUMBER OF GRADIENT INTEGRAL BLOCKS COMPUTED WAS     10888
 MAXIMUM MEMORY USED DURING MP2 GRADIENT=      167163 WORDS, OR       1 MWORDS.
 ..... DONE WITH MP2 ENERGY .....
 STEP CPU TIME =     0.14 TOTAL CPU TIME =          0.7 (      0.0 MIN)
 TOTAL WALL CLOCK TIME=          0.8 SECONDS, CPU UTILIZATION IS    98.74%

     -------------------------------------------------
     MP2 PROPERTIES...FOR THE FIRST ORDER WAVEFUNCTION
          USING THE RESPONSE (OR RELAXED) DENSITY
     -------------------------------------------------

          ---------------------------------------
          MULLIKEN AND LOWDIN POPULATION ANALYSES
          ---------------------------------------

               ----- POPULATIONS IN EACH AO -----
                             MULLIKEN      LOWDIN
              1  O  1  S      1.99559     1.97796
              2  O  1  S      0.93737     0.74727
              3  O  1  X      0.75484     0.70624
              4  O  1  Y      0.88575     0.84387
              5  O  1  Z      1.12154     1.09422
              6  O  1  S      0.93162     0.49024
              7  O  1  X      0.44465     0.50575
              8  O  1  Y      0.56479     0.63430
              9  O  1  Z      0.75322     0.77250
             10  O  1 XX      0.02350     0.18933
             11  O  1 YY      0.01273     0.18389
             12  O  1 ZZ      0.00464     0.18196
             13  O  1 XY      0.02109     0.02950
             14  O  1 XZ      0.01048     0.01686
             15  O  1 YZ      0.00950     0.01225
             16  O  2  S      1.99559     1.97796
             17  O  2  S      0.93737     0.74729
             18  O  2  X      0.74741     0.69776
             19  O  2  Y      0.90220     0.86273
             20  O  2  Z      1.11241     1.08377
             21  O  2  S      0.93190     0.49026
             22  O  2  X      0.43669     0.49900
             23  O  2  Y      0.57964     0.64517
             24  O  2  Z      0.74636     0.76849
             25  O  2 XX      0.02433     0.19018
             26  O  2 YY      0.01069     0.18214
             27  O  2 ZZ      0.00534     0.18255
             28  O  2 XY      0.01992     0.02798
             29  O  2 XZ      0.01196     0.01853
             30  O  2 YZ      0.00966     0.01243
             31  H  3  S      0.44693     0.41653
             32  H  3  S      0.08174     0.19729
             33  H  4  S      0.44691     0.41653
             34  H  4  S      0.08168     0.19727

          ----- MULLIKEN ATOMIC OVERLAP POPULATIONS -----
          (OFF-DIAGONAL ELEMENTS NEED TO BE MULTIPLIED BY 2)

             1           2           3           4

    1    8.1991671
    2    0.0573202   8.1992819
    3    0.2350815  -0.0202476   0.3125824
    4   -0.0202776   0.2351012   0.0012499   0.3125134

          TOTAL MULLIKEN AND LOWDIN ATOMIC POPULATIONS
       ATOM         MULL.POP.    CHARGE          LOW.POP.     CHARGE
    1 O             8.471291   -0.471291         8.386141   -0.386141
    2 O             8.471456   -0.471456         8.386242   -0.386242
    3 H             0.528666    0.471334         0.613817    0.386183
    4 H             0.528587    0.471413         0.613800    0.386200

          -------------------------------
          BOND ORDER AND VALENCE ANALYSIS     BOND ORDER THRESHOLD=0.050
          -------------------------------

                   BOND                       BOND                       BOND
  ATOM PAIR DIST  ORDER      ATOM PAIR DIST  ORDER      ATOM PAIR DIST  ORDER
    1   2  1.469  0.861        1   3  0.976  0.713        2   4  0.976  0.713

                       TOTAL       BONDED        FREE
      ATOM            VALENCE     VALENCE     VALENCE
    1 O                 1.947       1.575       0.372
    2 O                 1.947       1.575       0.372
    3 H                 0.750       0.715       0.035
    4 H                 0.750       0.715       0.035

    **** A SOLVENT MODEL IS IN USE IN THIS RUN ****
 ELECTRICAL PROPERTIES (MOMENTS, DENSITY, FIELD/GRADIENT, AND/OR POTENTIAL)
 ARE COMPUTED USING THE SOLVATED SYSTEM'S DENSITY MATRIX, BUT
 ONLY WITH AO INTEGRAL CONTRIBUTIONS FROM THE QUANTUM SOLUTE.
 WITH THE EXCEPTIONS THAT THE DIPOLE AND, OPTIONALLY, 
 POTENTIAL ARE PRINTED WITH THE SOLUTE CONTRIBUTION.

          ----------------------------
          SOLUTE ELECTROSTATIC MOMENTS
          ----------------------------

 POINT   1           X           Y           Z (BOHR)    CHARGE
                -0.009023    0.025027    0.393201       -0.00 (A.U.)
         DX          DY          DZ         /D/  (DEBYE)
     0.046515   -0.128429   -2.001085    2.005741

          ----------------------------
          SYSTEM ELECTROSTATIC MOMENTS
          ----------------------------

 POINT   1           X           Y           Z (BOHR)    CHARGE
                -0.009023    0.025027    0.393201       -0.00 (A.U.)
         DX          DY          DZ         /D/  (DEBYE)
     0.046515   -0.128429   -2.001085    2.005741
 INCLUDING PCM SURFACE CHARGES, TOTAL CHARGE=   -0.001009, AND TOTAL DIPOLE IS
         DX          DY          DZ         /D/  (DEBYE)
    -0.002450    0.003542   -0.031036    0.031334
 ...... END OF PROPERTY EVALUATION ......
 STEP CPU TIME =     0.00 TOTAL CPU TIME =          0.7 (      0.0 MIN)
 TOTAL WALL CLOCK TIME=          0.8 SECONDS, CPU UTILIZATION IS    98.75%

          NSERCH=  0     ENERGY=    -151.1295443

                                 -----------------------
                                 GRADIENT (HARTREE/BOHR)
                                 -----------------------
        ATOM     ZNUC       DE/DX         DE/DY         DE/DZ
 --------------------------------------------------------------
    1  O            8.0     0.0005225     0.0014811    -0.0015400
    2  O            8.0    -0.0001131    -0.0016333    -0.0005890
    3  H            1.0     0.0009941    -0.0005346     0.0014907
    4  H            1.0    -0.0014035     0.0006868     0.0006384

          MAXIMUM GRADIENT = 0.0016333    RMS GRADIENT = 0.0010882

 NSERCH:   0  E=     -151.1295442972  GRAD. MAX=  0.0016333  R.M.S.=  0.0010882

          FORCE CONSTANT MATRIX NOT UPDATED --- TAKING FIRST STEP
          MIN SEARCH, CORRECT HESSIAN, TRYING PURE NR STEP
               NR STEP HAS LENGTH         =   0.507898
          TRIM/QA LAMBDA FOR NON-TS MODES =  -0.00263873
          TRIM/QA STEP HAS LENGTH         =   0.300000
          RADIUS OF STEP TAKEN=   0.30000  CURRENT TRUST RADIUS=   0.30000

 BEGINNING GEOMETRY SEARCH POINT NSERCH=   1 ...

 COORDINATES OF ALL ATOMS ARE (ANGS)
   ATOM   CHARGE       X              Y              Z
 ------------------------------------------------------------
 O           8.0  -0.5916989206   0.4607873946   0.2644996749
 O           8.0   0.5758083249  -0.4200403656   0.3454534540
 H           1.0  -1.1752669663  -0.0735712647  -0.3288122663
 H           1.0   1.1911575619   0.0328242358  -0.2811408625

          INTERNUCLEAR DISTANCES (ANGS.)
          ------------------------------

                1 O          2 O          3 H          4 H     

   1 O       0.0000000    1.4647472 *  0.9889944 *  1.9129698 *
   2 O       1.4647472 *  0.0000000    1.9081247 *  0.9881100 *
   3 H       0.9889944 *  1.9081247 *  0.0000000    2.3692948 *
   4 H       1.9129698 *  0.9881100 *  2.3692948 *  0.0000000  

  * ... LESS THAN  3.000

 ...... END OF ONE-ELECTRON INTEGRALS ......
 STEP CPU TIME =     0.00 TOTAL CPU TIME =          0.7 (      0.0 MIN)
 TOTAL WALL CLOCK TIME=          0.8 SECONDS, CPU UTILIZATION IS    98.75%
 TOTAL NUMBER OF NONZERO TWO-ELECTRON INTEGRALS =              164569
         11 INTEGRAL RECORDS WERE STORED ON DISK FILE  8.
  ...... END OF TWO-ELECTRON INTEGRALS .....
 STEP CPU TIME =     0.01 TOTAL CPU TIME =          0.8 (      0.0 MIN)
 TOTAL WALL CLOCK TIME=          0.8 SECONDS, CPU UTILIZATION IS    98.76%
  
 DONE CAVITATION ENERGY
 STEP CPU TIME =     0.00 TOTAL CPU TIME =          0.8 (      0.0 MIN)
 TOTAL WALL CLOCK TIME=          0.8 SECONDS, CPU UTILIZATION IS    98.76%

     ----------------------------
     INPUT FOR TESSERA DEFINITION
     ----------------------------
     NTSALL  =        60     MTHALL  =         4
     MTHAUT  =         0     AUTFRE  =    2.0000
     NTSFRZ  =        60     KEEPSM  =         0
     AREAKP  =   10.0000     BONDRY  =    1.0000
     AREATL  =    0.0100

     SPHERE     INITS       METHOD
          1        60       FIXPVA
          2        60       FIXPVA
          3        60       FIXPVA
          4        60       FIXPVA

     ------------------------------
      FIXPVA TESSELLATION FOR PCM
         PEIFENG SU AND HUI LI
     UNIVERSITY OF NEBRASKA-LINCOLN
     ------------------------------


     INPUT FOR CAVITY DEFINITION 
     ---------------------------
   ATOM               COORDINATES                RADIUS       EPS
      1     -0.5917      0.4608      0.2645      1.5000     78.3900
      2      0.5758     -0.4200      0.3455      1.5000     78.3900
      3     -1.1753     -0.0736     -0.3288      1.2000     78.3900
      4      1.1912      0.0328     -0.2811      1.2000     78.3900

 MEMORY USED TO GENERATE CAVITY=    185362


 TOTAL NUMBER OF SPHERES=     4
 SPHERE           CENTER  (X,Y,Z) (A)               RADIUS (A)      AREA(A*A)
     1  -0.591698921   0.460787395   0.264499675   1.800000000  17.300739016
     2   0.575808325  -0.420040366   0.345453454   1.800000000  18.492957873
     3  -1.175266966  -0.073571265  -0.328812266   1.440000000   9.534027674
     4   1.191157562   0.032824236  -0.281140863   1.440000000   9.911066095

 TOTAL NUMBER OF TESSERAE=     112
 SURFACE AREA=    55.23879066(A**2)    CAVITY VOLUME=     39.07646652 (A**3)
 STEP CPU TIME =     0.00 TOTAL CPU TIME =          0.8 (      0.0 MIN)
 TOTAL WALL CLOCK TIME=          0.8 SECONDS, CPU UTILIZATION IS    98.77%

          THE SOLUTE IS ENCLOSED IN ONE CAVITY
 DONE CHECKING SEPARATION.
 STEP CPU TIME =     0.00 TOTAL CPU TIME =          0.8 (      0.0 MIN)
 TOTAL WALL CLOCK TIME=          0.8 SECONDS, CPU UTILIZATION IS    98.77%

 ..... DONE SETTING UP PCM CALCULATION .....
 STEP CPU TIME =     0.00 TOTAL CPU TIME =          0.8 (      0.0 MIN)
 TOTAL WALL CLOCK TIME=          0.8 SECONDS, CPU UTILIZATION IS    98.77%
 NUCLEI-NUCLEAR CHARGE POLARIZATION ADJUSTMENT TO VNN=        0.0000000000

          --------------------------
                 RHF SCF CALCULATION
          --------------------------
     DENSITY MATRIX CONV=  1.00E-06

 ITER EX DEM     TOTAL ENERGY        E CHANGE  DENSITY CHANGE     ORB. GRAD
          ---------------START SECOND ORDER SCF---------------
   1  0  0     -150.7521636491  -150.7521636491   0.033970462   0.026371128
   2  1  0     -150.7583299596    -0.0061663105   0.015788142   0.007718060
   3  2  0     -150.7592932536    -0.0009632940   0.004834702   0.001948098
   4  3  0     -150.7593522289    -0.0000589753   0.002193035   0.000903870
   5  4  0     -150.7593635831    -0.0000113542   0.000225769   0.000222603
   6  5  0     -150.7593641962    -0.0000006131   0.000196208   0.000128057
   7  6  0     -150.7593643699    -0.0000001737   0.000093239   0.000035802
   8  7  0     -150.7593644040    -0.0000000341   0.000023848   0.000016307
   9  8  0     -150.7593644100    -0.0000000059   0.000011003   0.000006334
  10  9  0     -150.7593644104    -0.0000000004   0.000002999   0.000001561
  11 10  0     -150.7593644104    -0.0000000000   0.000000663   0.000000408
  12 11  0     -150.7593644104     0.0000000000   0.000000099   0.000000075

          -----------------
          DENSITY CONVERGED
          -----------------
     TIME TO FORM FOCK OPERATORS=       0.1 SECONDS (       0.0 SEC/ITER)
     TIME TO SOLVE SCF EQUATIONS=       0.0 SECONDS (       0.0 SEC/ITER)

 FINAL RHF ENERGY IS     -150.7593644104 AFTER  12 ITERATIONS
  
   PCM ASC=     -0.0014410924
   GCAVP  =      0.0106852741
   GDISP  =      0.0000000000
   GREP   =      0.0000000000
 ...... END OF RHF CALCULATION ......
 STEP CPU TIME =     0.14 TOTAL CPU TIME =          0.9 (      0.0 MIN)
 TOTAL WALL CLOCK TIME=          0.9 SECONDS, CPU UTILIZATION IS    98.95%

 -------------------------------   -----------------------------
 MP2 ENERGY GRADIENT CALCULATION   PROGRAM WRITTEN BY K.ISHIMURA
 -------------------------------   -----------------------------
 NUMBER OF OCCUPIED ORBITALS            =    9
 NUMBER OF VIRTUAL ORBITALS             =   25
 NUMBER OF ACTIVE OCCUPIED ORBITALS     =    7
 NUMBER OF ACTIVE VIRTUAL ORBITALS      =   25
 NUMBER OF BASIS FUNCTIONS              =   34
 NUMBER OF BASIS SHELLS                 =   12
 AO INTEGRAL THRESHOLD                  = 1.00E-09
 HALF-TRANSFORMED INTEGRAL THRESHOLD    = 9.82E-11

 ----------------------------------------------
 MP2-CPCM GRADIENT CODED BY HUI LI AND DEJUN SI
        UNIVERSITY OF NEBRASKA-LINCOLN
 ----------------------------------------------

   REQUIRED DISK =         1 MBYTES/PROCESSOR


 .... DONE WITH PCM CONTRIBUTION TO GRADIENT ....
 STEP CPU TIME =     0.00 TOTAL CPU TIME =          0.9 (      0.0 MIN)
 TOTAL WALL CLOCK TIME=          0.9 SECONDS, CPU UTILIZATION IS    98.95%
 MAXIMUM MEMORY USED DURING MP2 GRADIENT=      167163 WORDS, OR       1 MWORDS.
 BEGINNING    1ST SHELL LOOP...
 .... DONE WITH 1ST THREE INDEX TRANSFORMATIONS ....
 STEP CPU TIME =     0.04 TOTAL CPU TIME =          0.9 (      0.0 MIN)
 TOTAL WALL CLOCK TIME=          1.0 SECONDS, CPU UTILIZATION IS    98.99%

 RESULTS OF MOLLER-PLESSET 2ND ORDER CORRECTION ARE
               E(0)=      -150.7593644104
               E(1)=         0.0
               E(2)=        -0.3702362647
             E(MP2)=      -151.1296006751
 .... DONE WITH 4TH INDEX TRANSFORMATION AND ENERGY ....
 STEP CPU TIME =     0.01 TOTAL CPU TIME =          1.0 (      0.0 MIN)
 TOTAL WALL CLOCK TIME=          1.0 SECONDS, CPU UTILIZATION IS    98.99%
 .... DONE WITH 1ST THREE INDEX TRANSFORMATIONS FOR GRADIENT ....
 STEP CPU TIME =     0.05 TOTAL CPU TIME =          1.0 (      0.0 MIN)
 TOTAL WALL CLOCK TIME=          1.0 SECONDS, CPU UTILIZATION IS    99.04%
 .... DONE WITH 4TH INDEX TRANSFORMATION FOR GRADIENT ....
 STEP CPU TIME =     0.00 TOTAL CPU TIME =          1.0 (      0.0 MIN)
 TOTAL WALL CLOCK TIME=          1.0 SECONDS, CPU UTILIZATION IS    99.04%
 CYCLE  1  Z-VECTOR ERROR= -0.276986E-02
 CYCLE  2  Z-VECTOR ERROR=  0.115870E-02
 CYCLE  3  Z-VECTOR ERROR= -0.381825E-03
 CYCLE  4  Z-VECTOR ERROR=  0.119798E-03
 CYCLE  5  Z-VECTOR ERROR= -0.515631E-04
 CYCLE  6  Z-VECTOR ERROR=  0.144569E-04
 CYCLE  7  Z-VECTOR ERROR= -0.234424E-05
 CYCLE  8  Z-VECTOR ERROR=  0.595594E-06
 CYCLE  9  Z-VECTOR ERROR= -0.107292E-06
 CYCLE 10  Z-VECTOR ERROR=  0.233360E-07
 CYCLE 11  Z-VECTOR ERROR= -0.599404E-08
 CYCLE 12  Z-VECTOR ERROR=  0.122826E-08
 CYCLE 13  Z-VECTOR ERROR= -0.349320E-09
 CYCLE 14  Z-VECTOR ERROR=  0.847648E-10
 .... DONE WITH RESPONSE EQUATIONS AND DENSITY ....
 STEP CPU TIME =     0.17 TOTAL CPU TIME =          1.2 (      0.0 MIN)
 TOTAL WALL CLOCK TIME=          1.2 SECONDS, CPU UTILIZATION IS    99.17%
 
 ----------------------------------
 THE P(2) CORRECTED MP2-CPCM ENERGY
  (CURRENTLY NO ANALYTIC GRADIENT)
 EMP2        =      -151.1296006751
 EPCM(2)     =        -0.0006821534
 EMP2+EPCM(2)=      -151.1302828286
 ----------------------------------
 

 .... DONE WITH PCM CONTRIBUTION TO GRADIENT ....
 STEP CPU TIME =     0.05 TOTAL CPU TIME =          1.2 (      0.0 MIN)
 TOTAL WALL CLOCK TIME=          1.2 SECONDS, CPU UTILIZATION IS    99.20%
 ..... END OF 1-ELECTRON GRADIENT ......
 STEP CPU TIME =     0.00 TOTAL CPU TIME =          1.2 (      0.0 MIN)
 TOTAL WALL CLOCK TIME=          1.2 SECONDS, CPU UTILIZATION IS    99.20%
 THE COARSE/FINE SCHWARZ SCREENINGS SKIPPED          0/         0 BLOCKS.
 THE NUMBER OF GRADIENT INTEGRAL BLOCKS COMPUTED WAS     10888
 MAXIMUM MEMORY USED DURING MP2 GRADIENT=      167163 WORDS, OR       1 MWORDS.
 ..... DONE WITH MP2 ENERGY .....
 STEP CPU TIME =     0.13 TOTAL CPU TIME =          1.4 (      0.0 MIN)
 TOTAL WALL CLOCK TIME=          1.4 SECONDS, CPU UTILIZATION IS    99.27%

          NSERCH=  1     ENERGY=    -151.1296007

                                 -----------------------
                                 GRADIENT (HARTREE/BOHR)
                                 -----------------------
        ATOM     ZNUC       DE/DX         DE/DY         DE/DZ
 --------------------------------------------------------------
    1  O            8.0     0.0038359     0.0052561     0.0076608
    2  O            8.0    -0.0044480    -0.0041690     0.0050589
    3  H            1.0    -0.0062134    -0.0047307    -0.0067844
    4  H            1.0     0.0068255     0.0036436    -0.0059353

          MAXIMUM GRADIENT = 0.0076608    RMS GRADIENT = 0.0055219

 NSERCH:   1  E=     -151.1296006751  GRAD. MAX=  0.0076608  R.M.S.=  0.0055219

          HESSIAN UPDATED USING THE BFGS FORMULA
             ACTUAL ENERGY CHANGE WAS  -0.0000563780
          PREDICTED ENERGY CHANGE WAS  -0.0004622496 RATIO=  0.122
          MIN SEARCH, CORRECT HESSIAN, TRYING PURE NR STEP
               NR STEP HAS LENGTH         =   0.186768
          RADIUS OF STEP TAKEN=   0.18677  CURRENT TRUST RADIUS=   0.30000

 BEGINNING GEOMETRY SEARCH POINT NSERCH=   2 ...

 COORDINATES OF ALL ATOMS ARE (ANGS)
   ATOM   CHARGE       X              Y              Z
 ------------------------------------------------------------
 O           8.0  -0.5793980948   0.4699876558   0.2193500571
 O           8.0   0.5669891330  -0.4364207091   0.3032184385
 H           1.0  -1.2020548824  -0.0813599886  -0.2848549032
 H           1.0   1.2144638442   0.0477930420  -0.2377135923

          INTERNUCLEAR DISTANCES (ANGS.)
          ------------------------------

                1 O          2 O          3 H          4 H     

   1 O       0.0000000    1.4638353 *  0.9725782 *  1.8987091 *
   2 O       1.4638353 *  0.0000000    1.8977395 *  0.9727764 *
   3 H       0.9725782 *  1.8977395 *  0.0000000    2.4204267 *
   4 H       1.8987091 *  0.9727764 *  2.4204267 *  0.0000000  

  * ... LESS THAN  3.000

 ...... END OF ONE-ELECTRON INTEGRALS ......
 STEP CPU TIME =     0.00 TOTAL CPU TIME =          1.4 (      0.0 MIN)
 TOTAL WALL CLOCK TIME=          1.4 SECONDS, CPU UTILIZATION IS    99.27%
 TOTAL NUMBER OF NONZERO TWO-ELECTRON INTEGRALS =              164571
         11 INTEGRAL RECORDS WERE STORED ON DISK FILE  8.
  ...... END OF TWO-ELECTRON INTEGRALS .....
 STEP CPU TIME =     0.01 TOTAL CPU TIME =          1.4 (      0.0 MIN)
 TOTAL WALL CLOCK TIME=          1.4 SECONDS, CPU UTILIZATION IS    99.28%
  
 DONE CAVITATION ENERGY
 STEP CPU TIME =     0.00 TOTAL CPU TIME =          1.4 (      0.0 MIN)
 TOTAL WALL CLOCK TIME=          1.4 SECONDS, CPU UTILIZATION IS    99.28%

     ----------------------------
     INPUT FOR TESSERA DEFINITION
     ----------------------------
     NTSALL  =        60     MTHALL  =         4
     MTHAUT  =         0     AUTFRE  =    2.0000
     NTSFRZ  =        60     KEEPSM  =         0
     AREAKP  =   10.0000     BONDRY  =    1.0000
     AREATL  =    0.0100

     SPHERE     INITS       METHOD
          1        60       FIXPVA
          2        60       FIXPVA
          3        60       FIXPVA
          4        60       FIXPVA

     ------------------------------
      FIXPVA TESSELLATION FOR PCM
         PEIFENG SU AND HUI LI
     UNIVERSITY OF NEBRASKA-LINCOLN
     ------------------------------


     INPUT FOR CAVITY DEFINITION 
     ---------------------------
   ATOM               COORDINATES                RADIUS       EPS
      1     -0.5794      0.4700      0.2194      1.5000     78.3900
      2      0.5670     -0.4364      0.3032      1.5000     78.3900
      3     -1.2021     -0.0814     -0.2849      1.2000     78.3900
      4      1.2145      0.0478     -0.2377      1.2000     78.3900

 MEMORY USED TO GENERATE CAVITY=    185362


 TOTAL NUMBER OF SPHERES=     4
 SPHERE           CENTER  (X,Y,Z) (A)               RADIUS (A)      AREA(A*A)
     1  -0.579398095   0.469987656   0.219350057   1.800000000  17.702576078
     2   0.566989133  -0.436420709   0.303218439   1.800000000  18.451348581
     3  -1.202054882  -0.081359989  -0.284854903   1.440000000   9.281690075
     4   1.214463844   0.047793042  -0.237713592   1.440000000   9.572861474

 TOTAL NUMBER OF TESSERAE=     113
 SURFACE AREA=    55.00847621(A**2)    CAVITY VOLUME=     38.84239528 (A**3)
 STEP CPU TIME =     0.00 TOTAL CPU TIME =          1.4 (      0.0 MIN)
 TOTAL WALL CLOCK TIME=          1.4 SECONDS, CPU UTILIZATION IS    99.28%

          THE SOLUTE IS ENCLOSED IN ONE CAVITY
 DONE CHECKING SEPARATION.
 STEP CPU TIME =     0.00 TOTAL CPU TIME =          1.4 (      0.0 MIN)
 TOTAL WALL CLOCK TIME=          1.4 SECONDS, CPU UTILIZATION IS    99.28%

 ..... DONE SETTING UP PCM CALCULATION .....
 STEP CPU TIME =     0.00 TOTAL CPU TIME =          1.4 (      0.0 MIN)
 TOTAL WALL CLOCK TIME=          1.4 SECONDS, CPU UTILIZATION IS    99.28%
 NUCLEI-NUCLEAR CHARGE POLARIZATION ADJUSTMENT TO VNN=        0.0000000000

          --------------------------
                 RHF SCF CALCULATION
          --------------------------
     DENSITY MATRIX CONV=  5.00E-06

 ITER EX DEM     TOTAL ENERGY        E CHANGE  DENSITY CHANGE     ORB. GRAD
          ---------------START SECOND ORDER SCF---------------
   1  0  0     -150.7585247331  -150.7585247331   0.019687125   0.015383056
   2  1  0     -150.7607873977    -0.0022626647   0.008485997   0.004751419
   3  2  0     -150.7611023359    -0.0003149381   0.002969411   0.000987648
   4  3  0     -150.7611204143    -0.0000180785   0.001385773   0.000432711
   5  4  0     -150.7611234333    -0.0000030190   0.000140306   0.000082119
   6  5  0     -150.7611235476    -0.0000001143   0.000061445   0.000043165
   7  6  0     -150.7611235706    -0.0000000230   0.000037235   0.000018878
   8  7  0     -150.7611235786    -0.0000000080   0.000020291   0.000008031
   9  8  0     -150.7611235802    -0.0000000016   0.000003194   0.000002157
  10  9  0     -150.7611235803    -0.0000000001   0.000001495   0.000000805

          -----------------
          DENSITY CONVERGED
          -----------------
     TIME TO FORM FOCK OPERATORS=       0.1 SECONDS (       0.0 SEC/ITER)
     TIME TO SOLVE SCF EQUATIONS=       0.0 SECONDS (       0.0 SEC/ITER)

 FINAL RHF ENERGY IS     -150.7611235803 AFTER  10 ITERATIONS
  
   PCM ASC=     -0.0010742028
   GCAVP  =      0.0106198975
   GDISP  =      0.0000000000
   GREP   =      0.0000000000
 ...... END OF RHF CALCULATION ......
 STEP CPU TIME =     0.12 TOTAL CPU TIME =          1.5 (      0.0 MIN)
 TOTAL WALL CLOCK TIME=          1.5 SECONDS, CPU UTILIZATION IS    99.33%

 -------------------------------   -----------------------------
 MP2 ENERGY GRADIENT CALCULATION   PROGRAM WRITTEN BY K.ISHIMURA
 -------------------------------   -----------------------------
 NUMBER OF OCCUPIED ORBITALS            =    9
 NUMBER OF VIRTUAL ORBITALS             =   25
 NUMBER OF ACTIVE OCCUPIED ORBITALS     =    7
 NUMBER OF ACTIVE VIRTUAL ORBITALS      =   25
 NUMBER OF BASIS FUNCTIONS              =   34
 NUMBER OF BASIS SHELLS                 =   12
 AO INTEGRAL THRESHOLD                  = 1.00E-09
 HALF-TRANSFORMED INTEGRAL THRESHOLD    = 9.82E-11

 ----------------------------------------------
 MP2-CPCM GRADIENT CODED BY HUI LI AND DEJUN SI
        UNIVERSITY OF NEBRASKA-LINCOLN
 ----------------------------------------------

   REQUIRED DISK =         1 MBYTES/PROCESSOR


 .... DONE WITH PCM CONTRIBUTION TO GRADIENT ....
 STEP CPU TIME =     0.00 TOTAL CPU TIME =          1.5 (      0.0 MIN)
 TOTAL WALL CLOCK TIME=          1.5 SECONDS, CPU UTILIZATION IS    99.33%
 MAXIMUM MEMORY USED DURING MP2 GRADIENT=      167163 WORDS, OR       1 MWORDS.
 BEGINNING    1ST SHELL LOOP...
 .... DONE WITH 1ST THREE INDEX TRANSFORMATIONS ....
 STEP CPU TIME =     0.04 TOTAL CPU TIME =          1.5 (      0.0 MIN)
 TOTAL WALL CLOCK TIME=          1.5 SECONDS, CPU UTILIZATION IS    99.34%

 RESULTS OF MOLLER-PLESSET 2ND ORDER CORRECTION ARE
               E(0)=      -150.7611235803
               E(1)=         0.0
               E(2)=        -0.3685494254
             E(MP2)=      -151.1296730057
 .... DONE WITH 4TH INDEX TRANSFORMATION AND ENERGY ....
 STEP CPU TIME =     0.01 TOTAL CPU TIME =          1.5 (      0.0 MIN)
 TOTAL WALL CLOCK TIME=          1.6 SECONDS, CPU UTILIZATION IS    99.35%
 .... DONE WITH 1ST THREE INDEX TRANSFORMATIONS FOR GRADIENT ....
 STEP CPU TIME =     0.05 TOTAL CPU TIME =          1.6 (      0.0 MIN)
 TOTAL WALL CLOCK TIME=          1.6 SECONDS, CPU UTILIZATION IS    99.36%
 .... DONE WITH 4TH INDEX TRANSFORMATION FOR GRADIENT ....
 STEP CPU TIME =     0.00 TOTAL CPU TIME =          1.6 (      0.0 MIN)
 TOTAL WALL CLOCK TIME=          1.6 SECONDS, CPU UTILIZATION IS    99.37%
 CYCLE  1  Z-VECTOR ERROR= -0.264415E-02
 CYCLE  2  Z-VECTOR ERROR=  0.112897E-02
[...]
   26  O  2 YY   -0.002552   0.002920  -0.012379  -0.003102   0.008552
   27  O  2 ZZ   -0.002474   0.002725  -0.004344  -0.011439  -0.018524
   28  O  2 XY    0.000088  -0.000272   0.008289  -0.016513  -0.024819
   29  O  2 XZ    0.000057  -0.000046   0.003363   0.012200   0.011575
   30  O  2 YZ    0.000054  -0.000106   0.008011   0.006996   0.017078
   31  H  3  S    0.000239   0.000299  -0.079687   0.117253  -0.171176
   32  H  3  S   -0.000167  -0.000079   0.009259  -0.002741  -0.069716
   33  H  4  S    0.000201  -0.000325  -0.079424  -0.117297  -0.168904
   34  H  4  S   -0.000157   0.000100   0.009247   0.002749  -0.068506

                      6          7          8          9         10
                   -0.7011    -0.6014    -0.5119    -0.4904     0.2224
                     A          A          A          A          A   
    1  O  1  S   -0.048262   0.030139   0.030526  -0.018930   0.078398
    2  O  1  S    0.111347  -0.072780  -0.067186   0.044073  -0.129380
    3  O  1  X    0.197504   0.339019  -0.117726  -0.107570  -0.194338
    4  O  1  Y    0.328413  -0.163718  -0.415357  -0.070964   0.270654
    5  O  1  Z    0.061248  -0.221578   0.164415   0.460949   0.045847
    6  O  1  S    0.183902  -0.136208  -0.151759   0.083884  -0.817962
    7  O  1  X    0.119911   0.232598  -0.093326  -0.088586  -0.251141
    8  O  1  Y    0.212238  -0.110060  -0.307590  -0.058519   0.488926
    9  O  1  Z    0.033154  -0.162680   0.126002   0.351159   0.127008
   10  O  1 XX    0.005962   0.004309   0.013745  -0.001601   0.031059
   11  O  1 YY   -0.023426   0.012432   0.016415   0.009497   0.003839
   12  O  1 ZZ   -0.000059  -0.001940  -0.008946  -0.016187   0.012559
   13  O  1 XY   -0.009320  -0.029635   0.005703  -0.000184  -0.009069
   14  O  1 XZ   -0.011481  -0.011004   0.008456  -0.011943   0.004374
   15  O  1 YZ   -0.012654   0.010764   0.003937  -0.010124  -0.010265
   16  O  2  S    0.048230   0.030202   0.030487   0.019126  -0.078233
   17  O  2  S   -0.111232  -0.072932  -0.067070  -0.044488   0.129189
   18  O  2  X    0.206340  -0.326925   0.112610  -0.086661  -0.190962
   19  O  2  Y    0.317368   0.135638   0.433926  -0.125628   0.262477
   20  O  2  Z   -0.097070  -0.255542   0.118716  -0.452269  -0.087867
   21  O  2  S   -0.183586  -0.136522  -0.151759  -0.084898   0.815485
   22  O  2  X    0.125262  -0.223731   0.089442  -0.072664  -0.243045
   23  O  2  Y    0.206084   0.089367   0.321983  -0.100243   0.468054
   24  O  2  Z   -0.056644  -0.185716   0.092558  -0.344491  -0.197497
   25  O  2 XX   -0.005001   0.003206   0.014439   0.002699  -0.031222
   26  O  2 YY    0.020137   0.009859   0.015236  -0.011156  -0.006117
   27  O  2 ZZ    0.002443   0.001728  -0.008459   0.016921  -0.009940
   28  O  2 XY    0.008901  -0.027362   0.004922  -0.001011   0.009988
   29  O  2 XZ   -0.013222   0.014766  -0.007885  -0.012708   0.002150
   30  O  2 YZ   -0.015452  -0.013748  -0.007218  -0.006216  -0.010667
   31  H  3  S   -0.143691  -0.026204   0.098450  -0.082044   0.049405
   32  H  3  S   -0.063923  -0.022372   0.039964  -0.044695   0.761930
   33  H  4  S    0.146201  -0.026049   0.097992   0.082462  -0.049969
   34  H  4  S    0.064821  -0.022114   0.039918   0.044903  -0.758047

                     11         12         13         14         15
                    0.2325     0.3115     1.0470     1.0487     1.0602
                     A          A          A          A          A   
    1  O  1  S   -0.057398   0.008933   0.014261  -0.007612   0.005247
    2  O  1  S    0.065790  -0.086618  -0.282436   0.229971   0.394296
    3  O  1  X   -0.125859  -0.360067  -0.194006  -0.076243  -0.168489
    4  O  1  Y   -0.079320   0.093870   0.083697  -0.330270   0.585427
    5  O  1  Z   -0.106613  -0.112084   0.252115   0.086663  -0.022951
    6  O  1  S    0.737026   0.182913   0.630981  -0.355150  -0.472366
    7  O  1  X   -0.268291  -0.646071   0.517919  -0.213543   0.458549
    8  O  1  Y   -0.222077   0.124698  -0.108962   0.143973  -0.732067
    9  O  1  Z   -0.243481  -0.237907  -0.033452  -0.236162   0.048004
   10  O  1 XX   -0.020741  -0.014970   0.019185   0.096203   0.211666
   11  O  1 YY   -0.022210  -0.024280  -0.075827   0.050208   0.174953
   12  O  1 ZZ   -0.025127  -0.025158  -0.092284   0.053748   0.122569
   13  O  1 XY    0.001447  -0.003260   0.006155  -0.108168  -0.080085
   14  O  1 XZ    0.005993   0.008096   0.072842  -0.084784   0.007686
   15  O  1 YZ    0.009551  -0.004712   0.085901  -0.058164  -0.005410
   16  O  2  S   -0.057691  -0.008716  -0.015758  -0.005080  -0.003873
   17  O  2  S    0.066958   0.086222   0.306101   0.183127  -0.356795
   18  O  2  X    0.128599  -0.365276  -0.163455   0.102625  -0.167631
   19  O  2  Y    0.066444   0.106320   0.106410   0.322507   0.573906
   20  O  2  Z   -0.109865   0.083105  -0.262279   0.090355  -0.032397
   21  O  2  S    0.737465  -0.185608  -0.661567  -0.252656   0.400695
   22  O  2  X    0.276793  -0.657665   0.541730   0.137253   0.453721
   23  O  2  Y    0.190866   0.151679  -0.131642  -0.150735  -0.722109
   24  O  2  Z   -0.256511   0.191494   0.039547  -0.213849   0.045188
   25  O  2 XX   -0.020192   0.014394  -0.014910   0.091834  -0.197111
   26  O  2 YY   -0.024186   0.023350   0.100102   0.047993  -0.161494
   27  O  2 ZZ   -0.023299   0.026779   0.083109   0.036185  -0.110037
   28  O  2 XY    0.001212   0.004390  -0.016080  -0.098277   0.079223
   29  O  2 XZ   -0.005922   0.007069   0.083796   0.087787  -0.008327
   30  O  2 YZ   -0.009635  -0.004192   0.092667   0.037746   0.005831
   31  H  3  S   -0.065208  -0.079837   0.671125  -0.790377  -0.055517
   32  H  3  S   -1.089513  -0.918794  -0.450278   0.562137   0.176113
   33  H  4  S   -0.065057   0.079693  -0.790746  -0.672478   0.058678
   34  H  4  S   -1.086504   0.924002   0.532042   0.483228  -0.164429

                     16         17         18         19
                    1.0658     1.1771     1.2109     1.2695
                     A          A          A          A   
    1  O  1  S   -0.025182  -0.016627  -0.000852   0.004358
    2  O  1  S   -0.628785  -0.399573   0.268103  -0.306612
    3  O  1  X   -0.011284  -0.381541  -0.295258   0.519267
    4  O  1  Y   -0.242470  -0.228474  -0.179085  -0.212927
    5  O  1  Z   -0.454795   0.373232   0.497190   0.284564
    6  O  1  S    1.217429   0.751730  -0.498958   0.776796
    7  O  1  X   -0.079338   0.520032   0.297480  -0.572326
    8  O  1  Y    0.202497   0.396930   0.115500   0.254509
    9  O  1  Z    0.328979  -0.365716  -0.778308  -0.306094
   10  O  1 XX   -0.242906  -0.218570   0.063234   0.010619
   11  O  1 YY   -0.226880  -0.117504   0.085574  -0.058833
   12  O  1 ZZ   -0.213521  -0.095400   0.095340  -0.147656
   13  O  1 XY    0.003655   0.072613  -0.038093  -0.109405
   14  O  1 XZ   -0.034303   0.006335   0.000100   0.072785
   15  O  1 YZ   -0.003714   0.022009  -0.061829   0.011582
   16  O  2  S   -0.025313  -0.016789   0.000620   0.004507
   17  O  2  S   -0.654347  -0.400808  -0.274012  -0.301811
   18  O  2  X    0.025928   0.367656  -0.268779  -0.529179
   19  O  2  Y    0.214005   0.276301  -0.238313   0.248994
   20  O  2  Z   -0.480560   0.367645  -0.478327   0.228189
   21  O  2  S    1.252679   0.757583   0.509919   0.764346
   22  O  2  X    0.081352  -0.510259   0.256378   0.585029
   23  O  2  Y   -0.197431  -0.440384   0.208858  -0.294612
   24  O  2  Z    0.358243  -0.349204   0.765001  -0.240793
   25  O  2 XX   -0.257064  -0.217121  -0.066071   0.016968
   26  O  2 YY   -0.236460  -0.122233  -0.100774  -0.062304
   27  O  2 ZZ   -0.219721  -0.092826  -0.083436  -0.146725
   28  O  2 XY    0.011952   0.071567   0.041916  -0.116266
   29  O  2 XZ    0.030536  -0.022501  -0.004357  -0.049695
   30  O  2 YZ    0.005010  -0.014696  -0.059576  -0.028866
   31  H  3  S   -0.127160   0.205472  -0.296040   0.256585
   32  H  3  S   -0.158303  -0.349113   0.368490  -0.514589
   33  H  4  S   -0.115136   0.205050   0.299173   0.254067
   34  H  4  S   -0.173562  -0.348022  -0.374174  -0.508809

     -------------------------------------------------
     MP2 PROPERTIES...FOR THE FIRST ORDER WAVEFUNCTION
          USING THE RESPONSE (OR RELAXED) DENSITY
     -------------------------------------------------

          ---------------------------------------
          MULLIKEN AND LOWDIN POPULATION ANALYSES
          ---------------------------------------

               ----- POPULATIONS IN EACH AO -----
                             MULLIKEN      LOWDIN
              1  O  1  S      1.99558     1.97794
              2  O  1  S      0.93705     0.74672
              3  O  1  X      0.75620     0.70877
              4  O  1  Y      0.91258     0.87300
              5  O  1  Z      1.09398     1.06277
              6  O  1  S      0.93054     0.48965
              7  O  1  X      0.44666     0.50968
              8  O  1  Y      0.58624     0.65088
              9  O  1  Z      0.72867     0.75165
             10  O  1 XX      0.02217     0.18786
             11  O  1 YY      0.01098     0.18304
             12  O  1 ZZ      0.00786     0.18420
             13  O  1 XY      0.01970     0.02784
             14  O  1 XZ      0.01136     0.01843
             15  O  1 YZ      0.01033     0.01284
             16  O  2  S      1.99558     1.97794
             17  O  2  S      0.93690     0.74663
             18  O  2  X      0.74871     0.70009
             19  O  2  Y      0.93117     0.89434
             20  O  2  Z      1.08290     1.05025
             21  O  2  S      0.93086     0.48962
             22  O  2  X      0.43831     0.50235
             23  O  2  Y      0.60304     0.66306
             24  O  2  Z      0.72108     0.74729
             25  O  2 XX      0.02315     0.18881
             26  O  2 YY      0.00880     0.18122
             27  O  2 ZZ      0.00876     0.18496
             28  O  2 XY      0.01844     0.02619
             29  O  2 XZ      0.01309     0.02042
             30  O  2 YZ      0.01006     0.01251
             31  H  3  S      0.44691     0.41670
             32  H  3  S      0.08296     0.19795
             33  H  4  S      0.44656     0.41651
             34  H  4  S      0.08282     0.19791

          ----- MULLIKEN ATOMIC OVERLAP POPULATIONS -----
          (OFF-DIAGONAL ELEMENTS NEED TO BE MULTIPLIED BY 2)

             1           2           3           4

    1    8.1980190
    2    0.0576173   8.1991350
    3    0.2342430  -0.0200660   0.3153822
    4   -0.0199768   0.2341546   0.0003126   0.3148943

          TOTAL MULLIKEN AND LOWDIN ATOMIC POPULATIONS
       ATOM         MULL.POP.    CHARGE          LOW.POP.     CHARGE
    1 O             8.469903   -0.469903         8.385253   -0.385253
    2 O             8.470841   -0.470841         8.385675   -0.385675
    3 H             0.529872    0.470128         0.614659    0.385341
    4 H             0.529385    0.470615         0.614413    0.385587

          -------------------------------
          BOND ORDER AND VALENCE ANALYSIS     BOND ORDER THRESHOLD=0.050
          -------------------------------

                   BOND                       BOND                       BOND
  ATOM PAIR DIST  ORDER      ATOM PAIR DIST  ORDER      ATOM PAIR DIST  ORDER
    1   2  1.463  0.862        1   3  0.977  0.713        2   4  0.978  0.713

                       TOTAL       BONDED        FREE
      ATOM            VALENCE     VALENCE     VALENCE
    1 O                 1.947       1.577       0.370
    2 O                 1.947       1.576       0.370
    3 H                 0.750       0.715       0.035
    4 H                 0.750       0.715       0.035

    **** A SOLVENT MODEL IS IN USE IN THIS RUN ****
 ELECTRICAL PROPERTIES (MOMENTS, DENSITY, FIELD/GRADIENT, AND/OR POTENTIAL)
 ARE COMPUTED USING THE SOLVATED SYSTEM'S DENSITY MATRIX, BUT
 ONLY WITH AO INTEGRAL CONTRIBUTIONS FROM THE QUANTUM SOLUTE.
 WITH THE EXCEPTIONS THAT THE DIPOLE AND, OPTIONALLY, 
 POTENTIAL ARE PRINTED WITH THE SOLUTE CONTRIBUTION.

          ----------------------------
          SOLUTE ELECTROSTATIC MOMENTS
          ----------------------------

 POINT   1           X           Y           Z (BOHR)    CHARGE
                -0.012087    0.031087    0.477305        0.00 (A.U.)
         DX          DY          DZ         /D/  (DEBYE)
     0.063460   -0.155755   -2.427952    2.433770

          ----------------------------
          SYSTEM ELECTROSTATIC MOMENTS
          ----------------------------

 POINT   1           X           Y           Z (BOHR)    CHARGE
                -0.012087    0.031087    0.477305        0.00 (A.U.)
         DX          DY          DZ         /D/  (DEBYE)
     0.063460   -0.155755   -2.427952    2.433770
 INCLUDING PCM SURFACE CHARGES, TOTAL CHARGE=   -0.001215, AND TOTAL DIPOLE IS
         DX          DY          DZ         /D/  (DEBYE)
    -0.017771   -0.004973   -0.021139    0.028060
 ...... END OF PROPERTY EVALUATION ......
 STEP CPU TIME =     0.00 TOTAL CPU TIME =         49.7 (      0.8 MIN)
 TOTAL WALL CLOCK TIME=         50.0 SECONDS, CPU UTILIZATION IS    99.46%
  $VIB   
          IVIB=   0 IATOM=   0 ICOORD=   0 E=     -151.1298707660
  8.416999404E-05-1.806342980E-04 5.438665734E-04 2.913036711E-05-3.484309308E-04
 -5.065391339E-04-6.580733190E-05 3.799679729E-04 1.549182674E-04-4.749302753E-05
  1.490972562E-04-1.922457084E-04
  6.345987263E-02-1.557550293E-01-2.427952098E+00
 ......END OF GEOMETRY SEARCH......
 STEP CPU TIME =     0.00 TOTAL CPU TIME =         49.7 (      0.8 MIN)
 TOTAL WALL CLOCK TIME=         50.0 SECONDS, CPU UTILIZATION IS    99.46%

     INPUT FOR CAVITY DEFINITION 
     ---------------------------
   ATOM               COORDINATES                RADIUS       EPS
      1     -0.5846      0.4662      0.2453      1.5000     78.3900
      2      0.5701     -0.4289      0.3278      1.5000     78.3900
      3     -1.1772     -0.0775     -0.3099      1.2000     78.3900
      4      1.1917      0.0402     -0.2632      1.2000     78.3900

 CREATION OF A NEW CAVITY WITH THE ORIGINAL SPHERE
 SIZES FOR THE COMPUTATION OF THE CAVITATION ENERGY.

     INPUT FOR CAVITY DEFINITION 
     ---------------------------
   ATOM               COORDINATES                RADIUS       EPS
      1     -0.5846      0.4662      0.2453      1.5000     78.3900
      2      0.5701     -0.4289      0.3278      1.5000     78.3900
      3     -1.1772     -0.0775     -0.3099      1.2000     78.3900
      4      1.1917      0.0402     -0.2632      1.2000     78.3900

 MEMORY USED TO GENERATE CAVITY=    185362


 TOTAL NUMBER OF SPHERES=     4
 SPHERE           CENTER  (X,Y,Z) (A)               RADIUS (A)      AREA(A*A)
     1  -0.584602613   0.466192010   0.245310647   1.500000000  15.147156310
     2   0.570089990  -0.428865818   0.327787210   1.500000000  14.961058917
     3  -1.177216545  -0.077542270  -0.309878871   1.200000000   8.710055543
     4   1.191729168   0.040216078  -0.263218986   1.200000000   9.632668035

 TOTAL NUMBER OF TESSERAE=     146
 SURFACE AREA=    48.45093880(A**2)    CAVITY VOLUME=     28.35300829 (A**3)
 STEP CPU TIME =     0.00 TOTAL CPU TIME =         49.7 (      0.8 MIN)
 TOTAL WALL CLOCK TIME=         50.0 SECONDS, CPU UTILIZATION IS    99.46%

          THE SOLUTE IS ENCLOSED IN ONE CAVITY
 DONE CHECKING SEPARATION.
 STEP CPU TIME =     0.00 TOTAL CPU TIME =         49.7 (      0.8 MIN)
 TOTAL WALL CLOCK TIME=         50.0 SECONDS, CPU UTILIZATION IS    99.46%

  ************************************
         CAVITATION FREE ENERGY
  ************************************

 PIEROTTI (SINGLE SPHERE, RADIUS FROM TOTAL  VOLUME):    5.38541 KCAL/MOL
 CAVITATION ENERGY (ENTHALPY) =    0.85928 KCAL/MOL
 THERMAL EXPANSION COEF. =      0.000257
 NUMERAL DENSITY =              0.033330
 SOLVENT MOLECULE DIAMETER =    2.770000 ANG.
 CAVITY DIAMETER =              3.783266 ANG.

 PIEROTTI (SINGLE SPHERE, RADIUS FROM TOTAL SURFACE):    5.72508 KCAL/MOL
 CAVITATION ENERGY (ENTHALPY) =    0.91693 KCAL/MOL
 THERMAL EXPANSION COEF. =      0.000257
 NUMERAL DENSITY =              0.033330
 SOLVENT MOLECULE DIAMETER =    2.770000 ANG.
 CAVITY DIAMETER =              3.927138 ANG.

 CLAVERIE-PIEROTTI (SPHERE BY SPHERE, SURFACE):    6.66372  KCAL/MOL
 CAVITATION ENERGY (ENTHALPY) =    1.96195 KCAL/MOL
 THERMAL EXPANSION COEF. =      0.000257
 NUMERAL DENSITY =              0.033330
 SOLVENT MOLECULE DIAMETER =    2.770000 ANG.

 SINANOGLU (SINGLE SPHERE, RADIUS FROM TOTAL SURFACE):    5.69624 KCAL/MOL
 CAVITATION ENERGY (ENTHALPY) =      9.10796 KCAL/MOL
 MICROSCOPIC CAVITY FACTOR =    1.277000
 SURFACE TENSION =             71.810000
 SURFACE TENSION DERIVATIVE =   0.650000
 ABSOLUTE TEMPERATURE =       298.000000
 CAVITY DIAMETER =              3.927138 ANG.

             ----------------------------------------------
             -------   RESULTS OF PCM CALCULATION   -------
             ----------------------------------------------

 FREE ENERGY IN SOLVENT = <PSI| H(0)+V/2 |PSI>       =     -151.1404900798 A.U.
 INTERNAL ENERGY IN SOLVENT = <PSI| H(0) |PSI>       =     -151.1282031113 A.U.
 DELTA INTERNAL ENERGY =  <D-PSI| H(0) |D-PSI>       =        0.0000000000 A.U.
 ELECTROSTATIC INTERACTION                           =       -0.0122869685 A.U.
 PIEROTTI CAVITATION ENERGY                          =        0.0106193138 A.U.
 DISPERSION FREE ENERGY                              =        0.0000000000 A.U.
 REPULSION FREE ENERGY                               =        0.0000000000 A.U.
 TOTAL INTERACTION (DELTA + ES + CAV + DISP + REP)   =       -0.0016676547 A.U.
 TOTAL FREE ENERGY IN SOLVENT                        =     -151.1298707660 A.U.

 FREE ENERGY IN SOLVENT       =      -94842.10 KCAL/MOL
 INTERNAL ENERGY IN SOLVENT   =      -94834.39 KCAL/MOL
 DELTA INTERNAL ENERGY        =           0.00 KCAL/MOL
 ELECTROSTATIC INTERACTION    =          -7.71 KCAL/MOL
 PIEROTTI CAVITATION ENERGY   =           6.66 KCAL/MOL
 DISPERSION FREE ENERGY       =           0.00 KCAL/MOL
 REPULSION FREE ENERGY        =           0.00 KCAL/MOL
 TOTAL INTERACTION            =          -1.05 KCAL/MOL
 TOTAL FREE ENERGY IN SOLVENT =      -94835.44 KCAL/MOL

 -INTERNAL ENERGY IN SOLVENT-
    OMITS ES,CAV,DISP,REP (USES SOLVATED ORBITALS IN THE GAS PHASE HAMILTONIAN)
 -FREE ENERGY IN SOLVENT-
    INCLUDES ES+DISP+REP WHICH ARE IN THE SELF-CONSISTENT WAVEFUNCTION.
 -TOTAL FREE ENERGY IN SOLVENT-
    INCLUDES ES+DISP+REP+CAV, MEANING CAVITATION IS NOT IN THE SCF ENERGY.

 .... DONE PRINTING PCM SOLVENT SUMMARY ....
 STEP CPU TIME =     0.00 TOTAL CPU TIME =         49.7 (      0.8 MIN)
 TOTAL WALL CLOCK TIME=         50.0 SECONDS, CPU UTILIZATION IS    99.46%
               580000  WORDS OF DYNAMIC MEMORY USED
 EXECUTION OF GAMESS TERMINATED NORMALLY 13:31:49 15-FEB-2023    
 DDI: 263640 bytes (0.3 MB / 0 MWords) used by master data server.

 ----------------------------------------
 CPU timing information for all processes
 ========================================
 0: 47.765 + 1.962 = 49.728
 ----------------------------------------
 ddikick.x: exited gracefully.
----- accounting info -----
Files used on the master node nayanika-HP-Pavilion-Gaming-Laptop-15-ec0xxx were:
-rw-rw-r-- 1 nayanika nayanika  668821 Feb 15 13:31 /home/nayanika/gamess/restart/h2o2_charges_PCM.dat
-rw-rw-r-- 1 nayanika nayanika     530 Feb 15 13:30 /home/nayanika/gamess/restart/h2o2_charges_PCM.F05
-rw-rw-r-- 1 nayanika nayanika 1980176 Feb 15 13:31 /home/nayanika/gamess/restart/h2o2_charges_PCM.F08
-rw-rw-r-- 1 nayanika nayanika 1963200 Feb 15 13:31 /home/nayanika/gamess/restart/h2o2_charges_PCM.F10
-rw-rw-r-- 1 nayanika nayanika       8 Feb 15 13:31 /home/nayanika/gamess/restart/h2o2_charges_PCM.F26
-rw-rw-r-- 1 nayanika nayanika       0 Feb 15 13:30 /home/nayanika/gamess/restart/h2o2_charges_PCM.F27
Wed 15 Feb 13:31:53 CET 2023
2.4u 6.7s 1:02.23 14.7% 0+0k 0+32io 0pf+0w
